 Entering Gaussian System, Link 0=g16
 Initial command:
 /home/kangmg/compchem/gaussian/g16/l1.exe "/home/kangmg/compchem/gaussian/scratch/Gau-32317.inp" -scrdir="/home/kangmg/compchem/gaussian/scratch/"
 Entering Link 1 = /home/kangmg/compchem/gaussian/g16/l1.exe PID=     32319.
  
 Copyright (c) 1988,1990,1992,1993,1995,1998,2003,2009,2016,
            Gaussian, Inc.  All Rights Reserved.
  
 This is part of the Gaussian(R) 16 program.  It is based on
 the Gaussian(R) 09 system (copyright 2009, Gaussian, Inc.),
 the Gaussian(R) 03 system (copyright 2003, Gaussian, Inc.),
 the Gaussian(R) 98 system (copyright 1998, Gaussian, Inc.),
 the Gaussian(R) 94 system (copyright 1995, Gaussian, Inc.),
 the Gaussian 92(TM) system (copyright 1992, Gaussian, Inc.),
 the Gaussian 90(TM) system (copyright 1990, Gaussian, Inc.),
 the Gaussian 88(TM) system (copyright 1988, Gaussian, Inc.),
 the Gaussian 86(TM) system (copyright 1986, Carnegie Mellon
 University), and the Gaussian 82(TM) system (copyright 1983,
 Carnegie Mellon University). Gaussian is a federally registered
 trademark of Gaussian, Inc.
  
 This software contains proprietary and confidential information,
 including trade secrets, belonging to Gaussian, Inc.
  
 This software is provided under written license and may be
 used, copied, transmitted, or stored only in accord with that
 written license.
  
 The following legend is applicable only to US Government
 contracts under FAR:
  
                    RESTRICTED RIGHTS LEGEND
  
 Use, reproduction and disclosure by the US Government is
 subject to restrictions as set forth in subparagraphs (a)
 and (c) of the Commercial Computer Software - Restricted
 Rights clause in FAR 52.227-19.
  
 Gaussian, Inc.
 340 Quinnipiac St., Bldg. 40, Wallingford CT 06492
  
  
 ---------------------------------------------------------------
 Warning -- This program may not be used in any manner that
 competes with the business of Gaussian, Inc. or will provide
 assistance to any competitor of Gaussian, Inc.  The licensee
 of this program is prohibited from giving any competitor of
 Gaussian, Inc. access to this program.  By using this program,
 the user acknowledges that Gaussian, Inc. is engaged in the
 business of creating and licensing software in the field of
 computational chemistry and represents and warrants to the
 licensee that it is not a competitor of Gaussian, Inc. and that
 it will not use this program in any manner prohibited above.
 ---------------------------------------------------------------
  

 Cite this work as:
 Gaussian 16, Revision A.03,
 M. J. Frisch, G. W. Trucks, H. B. Schlegel, G. E. Scuseria, 
 M. A. Robb, J. R. Cheeseman, G. Scalmani, V. Barone, 
 G. A. Petersson, H. Nakatsuji, X. Li, M. Caricato, A. V. Marenich, 
 J. Bloino, B. G. Janesko, R. Gomperts, B. Mennucci, H. P. Hratchian, 
 J. V. Ortiz, A. F. Izmaylov, J. L. Sonnenberg, D. Williams-Young, 
 F. Ding, F. Lipparini, F. Egidi, J. Goings, B. Peng, A. Petrone, 
 T. Henderson, D. Ranasinghe, V. G. Zakrzewski, J. Gao, N. Rega, 
 G. Zheng, W. Liang, M. Hada, M. Ehara, K. Toyota, R. Fukuda, 
 J. Hasegawa, M. Ishida, T. Nakajima, Y. Honda, O. Kitao, H. Nakai, 
 T. Vreven, K. Throssell, J. A. Montgomery, Jr., J. E. Peralta, 
 F. Ogliaro, M. J. Bearpark, J. J. Heyd, E. N. Brothers, K. N. Kudin, 
 V. N. Staroverov, T. A. Keith, R. Kobayashi, J. Normand, 
 K. Raghavachari, A. P. Rendell, J. C. Burant, S. S. Iyengar, 
 J. Tomasi, M. Cossi, J. M. Millam, M. Klene, C. Adamo, R. Cammi, 
 J. W. Ochterski, R. L. Martin, K. Morokuma, O. Farkas, 
 J. B. Foresman, and D. J. Fox, Gaussian, Inc., Wallingford CT, 2016.
 
 ******************************************
 Gaussian 16:  ES64L-G16RevA.03 25-Dec-2016
                 8-Jan-2024 
 ******************************************
 %chk=1_final.chk
 %oldchk=1_promol.chk
 Copying data from "1_promol.chk" to current chk file "1_final.chk"
 IOpt=  2 FromEx=T IUOpen= 4 IOptOp= 5 NList=   0 IFRang= 0 IUIn= 4 IUOut= 2.
 ----------------------------------------------------------
 #p b3lyp/6-31G* em=gd3bj ExtraLinks=L608 nosymm guess=read
 ----------------------------------------------------------
 1/38=1,172=1/1;
 2/12=2,15=1,17=6,18=5,40=1/2;
 3/5=1,6=6,7=1,11=2,25=1,30=1,74=-5,116=-2,124=41/1,2,3;
 4/5=1/1;
 5/5=2,38=6/2;
 6/7=2,8=2,9=2,10=2,28=1/1,8;
 99/5=1,9=1/99;
 Leave Link    1 at Mon Jan  8 21:32:46 2024, MaxMem=   104857600 cpu:               0.0 elap:               0.0
 (Enter /home/kangmg/compchem/gaussian/g16/l101.exe)
 --------------
 opted geometry
 --------------
 Symbolic Z-matrix:
 Charge =  0 Multiplicity = 1
 C                     0.       -0.26369   0.89698 
 C                    -0.00001  -1.56359   0.50253 
 H                    -0.00002  -1.86209  -0.54982 
 H                    -0.00001  -2.37896   1.22916 
 H                     0.00001  -0.04745   1.97195 
 C                     0.        0.9349   -1.3503 
 C                     0.        0.9349    0.00812 
 H                     0.00001   1.90076   0.52718 
 H                     0.00001   0.01457  -1.94153 
 H                     0.00001   1.86698  -1.91955 
 
 ITRead=  0  0  0  0  0  0  0  0  0  0
 MicOpt= -1 -1 -1 -1 -1 -1 -1 -1 -1 -1
 NAtoms=     10 NQM=       10 NQMF=       0 NMMI=      0 NMMIF=      0
                NMic=       0 NMicF=      0.
                    Isotopes and Nuclear Properties:
 (Nuclear quadrupole moments (NQMom) in fm**2, nuclear magnetic moments (NMagM)
  in nuclear magnetons)

  Atom         1           2           3           4           5           6           7           8           9          10
 IAtWgt=          12          12           1           1           1          12          12           1           1           1
 AtmWgt=  12.0000000  12.0000000   1.0078250   1.0078250   1.0078250  12.0000000  12.0000000   1.0078250   1.0078250   1.0078250
 NucSpn=           0           0           1           1           1           0           0           1           1           1
 AtZEff=  -0.0000000  -0.0000000  -0.0000000  -0.0000000  -0.0000000  -0.0000000  -0.0000000  -0.0000000  -0.0000000  -0.0000000
 NQMom=    0.0000000   0.0000000   0.0000000   0.0000000   0.0000000   0.0000000   0.0000000   0.0000000   0.0000000   0.0000000
 NMagM=    0.0000000   0.0000000   2.7928460   2.7928460   2.7928460   0.0000000   0.0000000   2.7928460   2.7928460   2.7928460
 AtZNuc=   6.0000000   6.0000000   1.0000000   1.0000000   1.0000000   6.0000000   6.0000000   1.0000000   1.0000000   1.0000000
 Leave Link  101 at Mon Jan  8 21:32:46 2024, MaxMem=   104857600 cpu:               0.2 elap:               0.2
 (Enter /home/kangmg/compchem/gaussian/g16/l202.exe)
                          Input orientation:                          
 ---------------------------------------------------------------------
 Center     Atomic      Atomic             Coordinates (Angstroms)
 Number     Number       Type             X           Y           Z
 ---------------------------------------------------------------------
      1          6           0        0.000002   -0.263692    0.896979
      2          6           0       -0.000007   -1.563588    0.502534
      3          1           0       -0.000017   -1.862092   -0.549821
      4          1           0       -0.000010   -2.378959    1.229163
      5          1           0        0.000010   -0.047446    1.971945
      6          6           0        0.000002    0.934896   -1.350305
      7          6           0        0.000002    0.934896    0.008121
      8          1           0        0.000007    1.900763    0.527175
      9          1           0        0.000005    0.014566   -1.941531
     10          1           0        0.000009    1.866984   -1.919546
 ---------------------------------------------------------------------
                    Distance matrix (angstroms):
                    1          2          3          4          5
     1  C    0.000000
     2  C    1.358424   0.000000
     3  H    2.155948   1.093872   0.000000
     4  H    2.141191   1.092163   1.852549   0.000000
     5  H    1.096501   2.111364   3.106807   2.446974   0.000000
     6  C    2.546939   3.110536   2.909281   4.199440   3.464439
     7  C    1.492208   2.546933   2.852094   3.531654   2.195815
     8  H    2.195819   3.464439   3.913949   4.336912   2.425464
     9  H    2.852116   2.909300   2.336386   3.972690   3.913968
    10  H    3.531656   4.199440   3.972676   5.286058   4.336905
                    6          7          8          9         10
     6  C    0.000000
     7  C    1.358426   0.000000
     8  H    2.111357   1.096501   0.000000
     9  H    1.093872   2.155957   3.106807   0.000000
    10  H    1.092165   2.141188   2.446954   1.852549   0.000000
 Symmetry turned off by external request.
 Stoichiometry    C4H6
 Framework group  C1[X(C4H6)]
 Deg. of freedom    24
 Full point group                 C1      NOp   1
 Rotational constants (GHZ):          20.7120826           5.5409256           4.3714651
 Leave Link  202 at Mon Jan  8 21:32:46 2024, MaxMem=   104857600 cpu:               0.0 elap:               0.0
 (Enter /home/kangmg/compchem/gaussian/g16/l301.exe)
 Standard basis: 6-31G(d) (6D, 7F)
 Ernie: Thresh=  0.10000D-02 Tol=  0.10000D-05 Strict=F.
    72 basis functions,   136 primitive gaussians,    72 cartesian basis functions
    15 alpha electrons       15 beta electrons
       nuclear repulsion energy       103.3419680155 Hartrees.
 IExCor=  402 DFT=T Ex+Corr=B3LYP ExCW=0 ScaHFX=  0.200000
 ScaDFX=  0.800000  0.720000  1.000000  0.810000 ScalE2=  1.000000  1.000000
 IRadAn=      5 IRanWt=     -1 IRanGd=            0 ICorTp=0 IEmpDi=141
 NAtoms=   10 NActive=   10 NUniq=   10 SFac= 1.00D+00 NAtFMM=   60 NAOKFM=F Big=F
 Integral buffers will be    131072 words long.
 Raffenetti 2 integral format.
 Two-electron integral symmetry is turned off.
 R6Disp:  Grimme-D3(BJ) Dispersion energy=       -0.0110359354 Hartrees.
 Nuclear repulsion after empirical dispersion term =      103.3309320802 Hartrees.
 Leave Link  301 at Mon Jan  8 21:32:46 2024, MaxMem=   104857600 cpu:               0.1 elap:               0.1
 (Enter /home/kangmg/compchem/gaussian/g16/l302.exe)
 NPDir=0 NMtPBC=     1 NCelOv=     1 NCel=       1 NClECP=     1 NCelD=      1
         NCelK=      1 NCelE2=     1 NClLst=     1 CellRange=     0.0.
 One-electron integrals computed using PRISM.
 NBasis=    72 RedAO= T EigKep=  3.13D-03  NBF=    72
 NBsUse=    72 1.00D-06 EigRej= -1.00D+00 NBFU=    72
 Precomputing XC quadrature grid using
 IXCGrd= 4 IRadAn=           5 IRanWt=          -1 IRanGd=           0 AccXCQ= 0.00D+00.
 Generated NRdTot=       0 NPtTot=           0 NUsed=           0 NTot=          32
 NSgBfM=    72    72    72    72    72 MxSgAt=    10 MxSgA2=    10.
 Leave Link  302 at Mon Jan  8 21:32:47 2024, MaxMem=   104857600 cpu:               0.3 elap:               0.3
 (Enter /home/kangmg/compchem/gaussian/g16/l303.exe)
 DipDrv:  MaxL=1.
 Leave Link  303 at Mon Jan  8 21:32:47 2024, MaxMem=   104857600 cpu:               0.0 elap:               0.0
 (Enter /home/kangmg/compchem/gaussian/g16/l401.exe)
 Initial guess from the checkpoint file:  "1_final.chk"
 B after Tr=     0.000000    0.000000    0.000000
         Rot=    1.000000   -0.000000   -0.000000    0.000000 Ang=   0.00 deg.
 Guess basis will be translated and rotated to current coordinates.
 JPrj=2 DoOrth=T DoCkMO=T.
 Initial guess <Sx>= 0.0000 <Sy>= 0.0000 <Sz>= 0.0000 <S**2>= 0.6215 S= 0.4335
 Leave Link  401 at Mon Jan  8 21:32:47 2024, MaxMem=   104857600 cpu:               0.1 elap:               0.1
 (Enter /home/kangmg/compchem/gaussian/g16/l502.exe)
 Keep R1 and R2 ints in memory in canonical form, NReq=7805935.
 FoFCou: FMM=F IPFlag=           0 FMFlag=           0 FMFlg1=           0
         NFxFlg=           0 DoJE=F BraDBF=F KetDBF=F FulRan=T
         wScrn=  0.000000 ICntrl=       600 IOpCl=  0 I1Cent=           0 NGrid=           0
         NMat0=    1 NMatS0=   2628 NMatT0=    0 NMatD0=    1 NMtDS0=    0 NMtDT0=    0
 Symmetry not used in FoFCou.
 Two-electron integral symmetry not used.
 UHF open shell SCF:
 Using DIIS extrapolation, IDIIS=  1040.
 NGot=   104857600 LenX=    97936966 LenY=    97931341
 Requested convergence on RMS density matrix=1.00D-08 within 128 cycles.
 Requested convergence on MAX density matrix=1.00D-06.
 Requested convergence on             energy=1.00D-06.
 No special actions if energy rises.

 Cycle   1  Pass 1  IDiag  1:
 E= -155.720100321857    
 DIIS: error= 4.08D-02 at cycle   1 NSaved=   1.
 NSaved= 1 IEnMin= 1 EnMin= -155.720100321857     IErMin= 1 ErrMin= 4.08D-02
 ErrMax= 4.08D-02  0.00D+00 EMaxC= 1.00D-01 BMatC= 3.76D-01 BMatP= 3.76D-01
 IDIUse=3 WtCom= 5.92D-01 WtEn= 4.08D-01
 Coeff-Com:  0.100D+01
 Coeff-En:   0.100D+01
 Coeff:      0.100D+01
 Gap=     1.005 Goal=   None    Shift=    0.000
 Gap=     0.977 Goal=   None    Shift=    0.000
 GapD=    0.977 DampG=2.000 DampE=0.500 DampFc=1.0000 IDamp=-1.
 RMSDP=1.07D-02 MaxDP=1.60D-01              OVMax= 2.59D-01

 Cycle   2  Pass 1  IDiag  1:
 E= -155.967584593129     Delta-E=       -0.247484271272 Rises=F Damp=F
 DIIS: error= 1.67D-02 at cycle   2 NSaved=   2.
 NSaved= 2 IEnMin= 2 EnMin= -155.967584593129     IErMin= 2 ErrMin= 1.67D-02
 ErrMax= 1.67D-02  0.00D+00 EMaxC= 1.00D-01 BMatC= 6.83D-02 BMatP= 3.76D-01
 IDIUse=3 WtCom= 8.33D-01 WtEn= 1.67D-01
 Coeff-Com:  0.765D-01 0.924D+00
 Coeff-En:   0.000D+00 0.100D+01
 Coeff:      0.637D-01 0.936D+00
 Gap=     0.195 Goal=   None    Shift=    0.000
 Gap=     0.195 Goal=   None    Shift=    0.000
 RMSDP=4.06D-03 MaxDP=6.23D-02 DE=-2.47D-01 OVMax= 1.15D-01

 Cycle   3  Pass 1  IDiag  1:
 E= -155.957793248718     Delta-E=        0.009791344412 Rises=F Damp=F
 DIIS: error= 2.60D-02 at cycle   3 NSaved=   3.
 NSaved= 3 IEnMin= 2 EnMin= -155.967584593129     IErMin= 2 ErrMin= 1.67D-02
 ErrMax= 2.60D-02  0.00D+00 EMaxC= 1.00D-01 BMatC= 1.35D-01 BMatP= 6.83D-02
 IDIUse=2 WtCom= 0.00D+00 WtEn= 1.00D+00
 Coeff-En:   0.000D+00 0.592D+00 0.408D+00
 Coeff:      0.000D+00 0.592D+00 0.408D+00
 Gap=     0.190 Goal=   None    Shift=    0.000
 Gap=     0.190 Goal=   None    Shift=    0.000
 RMSDP=2.58D-03 MaxDP=3.85D-02 DE= 9.79D-03 OVMax= 9.96D-02

 Cycle   4  Pass 1  IDiag  1:
 E= -155.993005638702     Delta-E=       -0.035212389985 Rises=F Damp=F
 DIIS: error= 3.96D-03 at cycle   4 NSaved=   4.
 NSaved= 4 IEnMin= 4 EnMin= -155.993005638702     IErMin= 4 ErrMin= 3.96D-03
 ErrMax= 3.96D-03  0.00D+00 EMaxC= 1.00D-01 BMatC= 5.75D-03 BMatP= 6.83D-02
 IDIUse=3 WtCom= 9.60D-01 WtEn= 3.96D-02
 Coeff-Com: -0.445D-01-0.632D-01 0.148D+00 0.960D+00
 Coeff-En:   0.000D+00 0.000D+00 0.000D+00 0.100D+01
 Coeff:     -0.427D-01-0.607D-01 0.142D+00 0.962D+00
 Gap=     0.193 Goal=   None    Shift=    0.000
 Gap=     0.193 Goal=   None    Shift=    0.000
 RMSDP=8.48D-04 MaxDP=1.28D-02 DE=-3.52D-02 OVMax= 2.23D-02

 Cycle   5  Pass 1  IDiag  1:
 E= -155.995298062031     Delta-E=       -0.002292423329 Rises=F Damp=F
 DIIS: error= 7.78D-04 at cycle   5 NSaved=   5.
 NSaved= 5 IEnMin= 5 EnMin= -155.995298062031     IErMin= 5 ErrMin= 7.78D-04
 ErrMax= 7.78D-04  0.00D+00 EMaxC= 1.00D-01 BMatC= 1.99D-04 BMatP= 5.75D-03
 IDIUse=3 WtCom= 9.92D-01 WtEn= 7.78D-03
 Coeff-Com:  0.277D-02-0.607D-01-0.232D-01 0.136D+00 0.945D+00
 Coeff-En:   0.000D+00 0.000D+00 0.000D+00 0.000D+00 0.100D+01
 Coeff:      0.275D-02-0.603D-01-0.230D-01 0.135D+00 0.946D+00
 Gap=     0.193 Goal=   None    Shift=    0.000
 Gap=     0.193 Goal=   None    Shift=    0.000
 RMSDP=2.38D-04 MaxDP=4.87D-03 DE=-2.29D-03 OVMax= 1.18D-02

 Cycle   6  Pass 1  IDiag  1:
 E= -155.995497054161     Delta-E=       -0.000198992130 Rises=F Damp=F
 DIIS: error= 5.85D-04 at cycle   6 NSaved=   6.
 NSaved= 6 IEnMin= 6 EnMin= -155.995497054161     IErMin= 6 ErrMin= 5.85D-04
 ErrMax= 5.85D-04  0.00D+00 EMaxC= 1.00D-01 BMatC= 5.22D-05 BMatP= 1.99D-04
 IDIUse=3 WtCom= 9.94D-01 WtEn= 5.85D-03
 Coeff-Com:  0.213D-02-0.656D-02-0.125D-01-0.395D-01 0.204D+00 0.853D+00
 Coeff-En:   0.000D+00 0.000D+00 0.000D+00 0.000D+00 0.000D+00 0.100D+01
 Coeff:      0.211D-02-0.652D-02-0.125D-01-0.393D-01 0.202D+00 0.854D+00
 Gap=     0.193 Goal=   None    Shift=    0.000
 Gap=     0.193 Goal=   None    Shift=    0.000
 RMSDP=1.41D-04 MaxDP=3.08D-03 DE=-1.99D-04 OVMax= 8.61D-03

 Cycle   7  Pass 1  IDiag  1:
 E= -155.995583476653     Delta-E=       -0.000086422492 Rises=F Damp=F
 DIIS: error= 4.70D-04 at cycle   7 NSaved=   7.
 NSaved= 7 IEnMin= 7 EnMin= -155.995583476653     IErMin= 7 ErrMin= 4.70D-04
 ErrMax= 4.70D-04  0.00D+00 EMaxC= 1.00D-01 BMatC= 2.59D-05 BMatP= 5.22D-05
 IDIUse=3 WtCom= 9.95D-01 WtEn= 4.70D-03
 Coeff-Com: -0.134D-02 0.306D-01 0.983D-02-0.778D-01-0.458D+00 0.642D-01
 Coeff-Com:  0.143D+01
 Coeff-En:   0.000D+00 0.000D+00 0.000D+00 0.000D+00 0.000D+00 0.000D+00
 Coeff-En:   0.100D+01
 Coeff:     -0.133D-02 0.305D-01 0.979D-02-0.775D-01-0.456D+00 0.639D-01
 Coeff:      0.143D+01
 Gap=     0.193 Goal=   None    Shift=    0.000
 Gap=     0.193 Goal=   None    Shift=    0.000
 RMSDP=2.29D-04 MaxDP=5.10D-03 DE=-8.64D-05 OVMax= 1.49D-02

 Cycle   8  Pass 1  IDiag  1:
 E= -155.995679555439     Delta-E=       -0.000096078786 Rises=F Damp=F
 DIIS: error= 2.63D-04 at cycle   8 NSaved=   8.
 NSaved= 8 IEnMin= 8 EnMin= -155.995679555439     IErMin= 8 ErrMin= 2.63D-04
 ErrMax= 2.63D-04  0.00D+00 EMaxC= 1.00D-01 BMatC= 7.75D-06 BMatP= 2.59D-05
 IDIUse=3 WtCom= 9.97D-01 WtEn= 2.63D-03
 Coeff-Com: -0.163D-02 0.966D-02 0.773D-02 0.598D-02-0.212D+00-0.424D+00
 Coeff-Com:  0.301D+00 0.131D+01
 Coeff-En:   0.000D+00 0.000D+00 0.000D+00 0.000D+00 0.000D+00 0.000D+00
 Coeff-En:   0.000D+00 0.100D+01
 Coeff:     -0.162D-02 0.963D-02 0.771D-02 0.596D-02-0.212D+00-0.423D+00
 Coeff:      0.300D+00 0.131D+01
 Gap=     0.193 Goal=   None    Shift=    0.000
 Gap=     0.193 Goal=   None    Shift=    0.000
 RMSDP=2.01D-04 MaxDP=4.36D-03 DE=-9.61D-05 OVMax= 1.32D-02

 Cycle   9  Pass 1  IDiag  1:
 E= -155.995716423289     Delta-E=       -0.000036867850 Rises=F Damp=F
 DIIS: error= 7.07D-05 at cycle   9 NSaved=   9.
 NSaved= 9 IEnMin= 9 EnMin= -155.995716423289     IErMin= 9 ErrMin= 7.07D-05
 ErrMax= 7.07D-05  0.00D+00 EMaxC= 1.00D-01 BMatC= 6.63D-07 BMatP= 7.75D-06
 IDIUse=1 WtCom= 1.00D+00 WtEn= 0.00D+00
 Coeff-Com:  0.174D-03-0.416D-02-0.489D-03 0.123D-01 0.448D-01-0.666D-01
 Coeff-Com: -0.210D+00 0.164D+00 0.106D+01
 Coeff:      0.174D-03-0.416D-02-0.489D-03 0.123D-01 0.448D-01-0.666D-01
 Coeff:     -0.210D+00 0.164D+00 0.106D+01
 Gap=     0.193 Goal=   None    Shift=    0.000
 Gap=     0.193 Goal=   None    Shift=    0.000
 RMSDP=5.77D-05 MaxDP=1.28D-03 DE=-3.69D-05 OVMax= 3.85D-03

 Cycle  10  Pass 1  IDiag  1:
 E= -155.995718934542     Delta-E=       -0.000002511252 Rises=F Damp=F
 DIIS: error= 1.25D-05 at cycle  10 NSaved=  10.
 NSaved=10 IEnMin=10 EnMin= -155.995718934542     IErMin=10 ErrMin= 1.25D-05
 ErrMax= 1.25D-05  0.00D+00 EMaxC= 1.00D-01 BMatC= 2.61D-08 BMatP= 6.63D-07
 IDIUse=1 WtCom= 1.00D+00 WtEn= 0.00D+00
 Coeff-Com:  0.115D-03-0.751D-03-0.517D-03-0.212D-03 0.147D-01 0.289D-01
 Coeff-Com: -0.228D-01-0.975D-01-0.141D-01 0.109D+01
 Coeff:      0.115D-03-0.751D-03-0.517D-03-0.212D-03 0.147D-01 0.289D-01
 Coeff:     -0.228D-01-0.975D-01-0.141D-01 0.109D+01
 Gap=     0.193 Goal=   None    Shift=    0.000
 Gap=     0.193 Goal=   None    Shift=    0.000
 RMSDP=9.40D-06 MaxDP=2.14D-04 DE=-2.51D-06 OVMax= 6.45D-04

 Cycle  11  Pass 1  IDiag  1:
 E= -155.995718997415     Delta-E=       -0.000000062873 Rises=F Damp=F
 DIIS: error= 3.41D-06 at cycle  11 NSaved=  11.
 NSaved=11 IEnMin=11 EnMin= -155.995718997415     IErMin=11 ErrMin= 3.41D-06
 ErrMax= 3.41D-06  0.00D+00 EMaxC= 1.00D-01 BMatC= 2.52D-09 BMatP= 2.61D-08
 IDIUse=1 WtCom= 1.00D+00 WtEn= 0.00D+00
 Coeff-Com:  0.807D-05 0.131D-03-0.600D-04-0.808D-03-0.152D-03 0.919D-02
 Coeff-Com:  0.837D-02-0.262D-01-0.612D-01 0.154D+00 0.917D+00
 Coeff:      0.807D-05 0.131D-03-0.600D-04-0.808D-03-0.152D-03 0.919D-02
 Coeff:      0.837D-02-0.262D-01-0.612D-01 0.154D+00 0.917D+00
 Gap=     0.193 Goal=   None    Shift=    0.000
 Gap=     0.193 Goal=   None    Shift=    0.000
 RMSDP=1.01D-06 MaxDP=2.68D-05 DE=-6.29D-08 OVMax= 7.86D-05

 Cycle  12  Pass 1  IDiag  1:
 E= -155.995718997644     Delta-E=       -0.000000000229 Rises=F Damp=F
 DIIS: error= 4.13D-06 at cycle  12 NSaved=  12.
 NSaved=12 IEnMin=12 EnMin= -155.995718997644     IErMin=11 ErrMin= 3.41D-06
 ErrMax= 4.13D-06  0.00D+00 EMaxC= 1.00D-01 BMatC= 3.87D-09 BMatP= 2.52D-09
 IDIUse=1 WtCom= 1.00D+00 WtEn= 0.00D+00
 Coeff-Com: -0.913D-05 0.191D-03 0.213D-04-0.546D-03-0.197D-02 0.271D-02
 Coeff-Com:  0.874D-02-0.579D-02-0.400D-01-0.368D-01 0.645D+00 0.429D+00
 Coeff:     -0.913D-05 0.191D-03 0.213D-04-0.546D-03-0.197D-02 0.271D-02
 Coeff:      0.874D-02-0.579D-02-0.400D-01-0.368D-01 0.645D+00 0.429D+00
 Gap=     0.193 Goal=   None    Shift=    0.000
 Gap=     0.193 Goal=   None    Shift=    0.000
 RMSDP=4.23D-07 MaxDP=9.51D-06 DE=-2.29D-10 OVMax= 2.69D-05

 Cycle  13  Pass 1  IDiag  1:
 E= -155.995718998755     Delta-E=       -0.000000001111 Rises=F Damp=F
 DIIS: error= 3.09D-07 at cycle  13 NSaved=  13.
 NSaved=13 IEnMin=13 EnMin= -155.995718998755     IErMin=13 ErrMin= 3.09D-07
 ErrMax= 3.09D-07  0.00D+00 EMaxC= 1.00D-01 BMatC= 3.40D-11 BMatP= 2.52D-09
 IDIUse=1 WtCom= 1.00D+00 WtEn= 0.00D+00
 Coeff-Com: -0.169D-05-0.150D-05 0.500D-05 0.672D-04-0.870D-04-0.119D-02
 Coeff-Com: -0.593D-03 0.344D-02 0.707D-02-0.271D-01-0.790D-01 0.290D-01
 Coeff-Com:  0.107D+01
 Coeff:     -0.169D-05-0.150D-05 0.500D-05 0.672D-04-0.870D-04-0.119D-02
 Coeff:     -0.593D-03 0.344D-02 0.707D-02-0.271D-01-0.790D-01 0.290D-01
 Coeff:      0.107D+01
 Gap=     0.193 Goal=   None    Shift=    0.000
 Gap=     0.193 Goal=   None    Shift=    0.000
 RMSDP=9.04D-08 MaxDP=1.51D-06 DE=-1.11D-09 OVMax= 4.45D-06

 Cycle  14  Pass 1  IDiag  1:
 E= -155.995718998770     Delta-E=       -0.000000000015 Rises=F Damp=F
 DIIS: error= 3.88D-08 at cycle  14 NSaved=  14.
 NSaved=14 IEnMin=14 EnMin= -155.995718998770     IErMin=14 ErrMin= 3.88D-08
 ErrMax= 3.88D-08  0.00D+00 EMaxC= 1.00D-01 BMatC= 4.12D-13 BMatP= 3.40D-11
 IDIUse=1 WtCom= 1.00D+00 WtEn= 0.00D+00
 Coeff-Com:  0.157D-06-0.516D-05 0.472D-06 0.178D-04 0.365D-04-0.123D-03
 Coeff-Com: -0.242D-03 0.331D-03 0.129D-02 0.486D-04-0.235D-01-0.959D-02
 Coeff-Com:  0.831D-01 0.949D+00
 Coeff:      0.157D-06-0.516D-05 0.472D-06 0.178D-04 0.365D-04-0.123D-03
 Coeff:     -0.242D-03 0.331D-03 0.129D-02 0.486D-04-0.235D-01-0.959D-02
 Coeff:      0.831D-01 0.949D+00
 Gap=     0.193 Goal=   None    Shift=    0.000
 Gap=     0.193 Goal=   None    Shift=    0.000
 RMSDP=9.10D-09 MaxDP=8.12D-08 DE=-1.50D-11 OVMax= 2.00D-07

 SCF Done:  E(UB3LYP) =  -155.995718999     A.U. after   14 cycles
            NFock= 14  Conv=0.91D-08     -V/T= 2.0117
 <Sx>= 0.0000 <Sy>= 0.0000 <Sz>= 0.0000 <S**2>=-0.0000 S=-0.0000
 <L.S>= 0.000000000000E+00
 KE= 1.541963755225D+02 PE=-5.669760160463D+02 EE= 1.534529894449D+02
 Annihilation of the first spin contaminant:
 S**2 before annihilation    -0.0000,   after    -0.0000
 Leave Link  502 at Mon Jan  8 21:33:43 2024, MaxMem=   104857600 cpu:              56.2 elap:              56.3
 (Enter /home/kangmg/compchem/gaussian/g16/l601.exe)
 Copying SCF densities to generalized density rwf, IOpCl= 1 IROHF=0.

 **********************************************************************

            Population analysis using the SCF density.

 **********************************************************************

 Alpha  occ. eigenvalues --  -10.19757 -10.19730 -10.18697 -10.18696  -0.79187
 Alpha  occ. eigenvalues --   -0.72018  -0.61595  -0.52713  -0.48296  -0.43362
 Alpha  occ. eigenvalues --   -0.41369  -0.36130  -0.34783  -0.31266  -0.22554
 Alpha virt. eigenvalues --   -0.03283   0.08904   0.10034   0.11212   0.15195
 Alpha virt. eigenvalues --    0.18560   0.19653   0.20705   0.29894   0.33446
 Alpha virt. eigenvalues --    0.42557   0.46940   0.52961   0.53131   0.57897
 Alpha virt. eigenvalues --    0.59635   0.62634   0.63869   0.66790   0.67896
 Alpha virt. eigenvalues --    0.68994   0.83171   0.85436   0.87506   0.89025
 Alpha virt. eigenvalues --    0.92413   0.94478   0.98092   1.04690   1.06910
 Alpha virt. eigenvalues --    1.17116   1.22328   1.34010   1.46223   1.47163
 Alpha virt. eigenvalues --    1.51415   1.65676   1.74795   1.76557   1.87355
 Alpha virt. eigenvalues --    1.94344   1.99701   2.09223   2.14790   2.19886
 Alpha virt. eigenvalues --    2.22360   2.26567   2.51605   2.52508   2.52593
 Alpha virt. eigenvalues --    2.60701   2.84192   3.03466   4.04956   4.14116
 Alpha virt. eigenvalues --    4.19865   4.46890
  Beta  occ. eigenvalues --  -10.19757 -10.19730 -10.18697 -10.18696  -0.79187
  Beta  occ. eigenvalues --   -0.72018  -0.61595  -0.52713  -0.48296  -0.43362
  Beta  occ. eigenvalues --   -0.41369  -0.36130  -0.34783  -0.31266  -0.22554
  Beta virt. eigenvalues --   -0.03283   0.08904   0.10034   0.11212   0.15195
  Beta virt. eigenvalues --    0.18560   0.19653   0.20705   0.29894   0.33446
  Beta virt. eigenvalues --    0.42557   0.46940   0.52961   0.53131   0.57897
  Beta virt. eigenvalues --    0.59635   0.62634   0.63869   0.66790   0.67896
  Beta virt. eigenvalues --    0.68994   0.83171   0.85436   0.87506   0.89025
  Beta virt. eigenvalues --    0.92413   0.94478   0.98092   1.04690   1.06910
  Beta virt. eigenvalues --    1.17116   1.22328   1.34010   1.46223   1.47163
  Beta virt. eigenvalues --    1.51415   1.65676   1.74795   1.76557   1.87355
  Beta virt. eigenvalues --    1.94344   1.99701   2.09223   2.14790   2.19886
  Beta virt. eigenvalues --    2.22360   2.26567   2.51605   2.52508   2.52593
  Beta virt. eigenvalues --    2.60701   2.84192   3.03466   4.04956   4.14116
  Beta virt. eigenvalues --    4.19865   4.46890
          Condensed to atoms (all electrons):
               1          2          3          4          5          6
     1  C    4.773608   0.646165  -0.030547  -0.021308   0.363062  -0.037841
     2  C    0.646165   5.059060   0.364672   0.364577  -0.054492  -0.019285
     3  H   -0.030547   0.364672   0.564506  -0.042674   0.005470   0.004690
     4  H   -0.021308   0.364577  -0.042674   0.557731  -0.007367   0.000080
     5  H    0.363062  -0.054492   0.005470  -0.007367   0.606505   0.005663
     6  C   -0.037841  -0.019285   0.004690   0.000080   0.005663   5.059058
     7  C    0.439453  -0.037841  -0.011332   0.004027  -0.042248   0.646164
     8  H   -0.042247   0.005663   0.000023  -0.000145  -0.005694  -0.054491
     9  H   -0.011331   0.004689   0.003349  -0.000095   0.000023   0.364673
    10  H    0.004027   0.000080  -0.000095   0.000001  -0.000145   0.364576
               7          8          9         10
     1  C    0.439453  -0.042247  -0.011331   0.004027
     2  C   -0.037841   0.005663   0.004689   0.000080
     3  H   -0.011332   0.000023   0.003349  -0.000095
     4  H    0.004027  -0.000145  -0.000095   0.000001
     5  H   -0.042248  -0.005694   0.000023  -0.000145
     6  C    0.646164  -0.054491   0.364673   0.364576
     7  C    4.773616   0.363062  -0.030547  -0.021308
     8  H    0.363062   0.606505   0.005470  -0.007368
     9  H   -0.030547   0.005470   0.564505  -0.042674
    10  H   -0.021308  -0.007368  -0.042674   0.557733
          Atomic-Atomic Spin Densities.
               1          2          3          4          5          6
     1  C    0.000000  -0.000000   0.000000   0.000000   0.000000  -0.000000
     2  C   -0.000000  -0.000000  -0.000000   0.000000  -0.000000   0.000000
     3  H    0.000000  -0.000000   0.000000   0.000000   0.000000   0.000000
     4  H    0.000000   0.000000   0.000000  -0.000000   0.000000   0.000000
     5  H    0.000000  -0.000000   0.000000   0.000000  -0.000000  -0.000000
     6  C   -0.000000   0.000000   0.000000   0.000000  -0.000000   0.000000
     7  C   -0.000000   0.000000  -0.000000  -0.000000  -0.000000   0.000000
     8  H    0.000000   0.000000  -0.000000   0.000000   0.000000   0.000000
     9  H    0.000000  -0.000000  -0.000000   0.000000   0.000000   0.000000
    10  H    0.000000  -0.000000  -0.000000  -0.000000  -0.000000  -0.000000
               7          8          9         10
     1  C   -0.000000   0.000000   0.000000   0.000000
     2  C    0.000000   0.000000  -0.000000  -0.000000
     3  H   -0.000000  -0.000000  -0.000000  -0.000000
     4  H   -0.000000   0.000000   0.000000  -0.000000
     5  H   -0.000000   0.000000   0.000000  -0.000000
     6  C    0.000000   0.000000   0.000000  -0.000000
     7  C   -0.000000  -0.000000  -0.000000  -0.000000
     8  H   -0.000000   0.000000  -0.000000  -0.000000
     9  H   -0.000000  -0.000000  -0.000000  -0.000000
    10  H   -0.000000  -0.000000  -0.000000   0.000000
 Mulliken charges and spin densities:
               1          2
     1  C   -0.083040   0.000000
     2  C   -0.333290  -0.000000
     3  H    0.141937   0.000000
     4  H    0.145173  -0.000000
     5  H    0.129221  -0.000000
     6  C   -0.333285   0.000000
     7  C   -0.083047  -0.000000
     8  H    0.129221   0.000000
     9  H    0.141937  -0.000000
    10  H    0.145172   0.000000
 Sum of Mulliken charges =  -0.00000   0.00000
 Mulliken charges and spin densities with hydrogens summed into heavy atoms:
               1          2
     1  C    0.046181   0.000000
     2  C   -0.046179  -0.000000
     6  C   -0.046176   0.000000
     7  C    0.046174  -0.000000
 Electronic spatial extent (au):  <R**2>=            313.3757
 Charge=             -0.0000 electrons
 Dipole moment (field-independent basis, Debye):
    X=              0.0000    Y=              0.0466    Z=              0.0628  Tot=              0.0782
 Quadrupole moment (field-independent basis, Debye-Ang):
   XX=            -28.0788   YY=            -22.5968   ZZ=            -22.5014
   XY=              0.0000   XZ=              0.0000   YZ=              0.1571
 Traceless Quadrupole moment (field-independent basis, Debye-Ang):
   XX=             -3.6865   YY=              1.7956   ZZ=              1.8909
   XY=              0.0000   XZ=              0.0000   YZ=              0.1571
 Octapole moment (field-independent basis, Debye-Ang**2):
  XXX=              0.0000  YYY=              0.5844  ZZZ=              0.9005  XYY=             -0.0000
  XXY=              0.3523  XXZ=              0.4752  XZZ=              0.0001  YZZ=              0.3460
  YYZ=              0.3543  XYZ=             -0.0000
 Hexadecapole moment (field-independent basis, Debye-Ang**3):
 XXXX=            -29.2351 YYYY=           -212.7639 ZZZZ=           -163.4426 XXXY=             -0.0004
 XXXZ=              0.0001 YYYX=             -0.0002 YYYZ=             38.9276 ZZZX=              0.0001
 ZZZY=             42.3437 XXYY=            -47.1770 XXZZ=            -36.5761 YYZZ=            -59.2943
 XXYZ=             17.4679 YYXZ=             -0.0000 ZZXY=             -0.0001
 N-N= 1.033309320802D+02 E-N=-5.669760147909D+02  KE= 1.541963755225D+02
                          Isotropic Fermi Contact Couplings
        Atom                 a.u.       MegaHertz       Gauss      10(-4) cm-1
     1  C(13)              0.00000       0.00001       0.00000       0.00000
     2  C(13)              0.00000       0.00001       0.00000       0.00000
     3  H(1)               0.00000       0.00004       0.00002       0.00001
     4  H(1)              -0.00000      -0.00003      -0.00001      -0.00001
     5  H(1)              -0.00000      -0.00003      -0.00001      -0.00001
     6  C(13)             -0.00000      -0.00001      -0.00000      -0.00000
     7  C(13)             -0.00000      -0.00001      -0.00000      -0.00000
     8  H(1)               0.00000       0.00003       0.00001       0.00001
     9  H(1)              -0.00000      -0.00004      -0.00002      -0.00001
    10  H(1)               0.00000       0.00003       0.00001       0.00001
 --------------------------------------------------------
       Center         ----  Spin Dipole Couplings  ----
                      3XX-RR        3YY-RR        3ZZ-RR
 --------------------------------------------------------
     1   Atom        0.000000     -0.000000     -0.000000
     2   Atom       -0.000000      0.000000      0.000000
     3   Atom        0.000000      0.000000     -0.000000
     4   Atom       -0.000000      0.000000     -0.000000
     5   Atom       -0.000000     -0.000000      0.000000
     6   Atom        0.000000     -0.000000     -0.000000
     7   Atom       -0.000000      0.000000      0.000000
     8   Atom        0.000000     -0.000000      0.000000
     9   Atom       -0.000000      0.000000     -0.000000
    10   Atom        0.000000     -0.000000     -0.000000
 --------------------------------------------------------
                        XY            XZ            YZ
 --------------------------------------------------------
     1   Atom       -0.000000     -0.000000     -0.000000
     2   Atom        0.000000      0.000000     -0.000000
     3   Atom       -0.000000     -0.000000     -0.000000
     4   Atom        0.000000      0.000000     -0.000000
     5   Atom       -0.000000      0.000000      0.000000
     6   Atom        0.000000      0.000000      0.000000
     7   Atom        0.000000     -0.000000     -0.000000
     8   Atom       -0.000000     -0.000000     -0.000000
     9   Atom       -0.000000     -0.000000      0.000000
    10   Atom        0.000000      0.000000      0.000000
 --------------------------------------------------------


 ---------------------------------------------------------------------------------
              Anisotropic Spin Dipole Couplings in Principal Axis System
 ---------------------------------------------------------------------------------

       Atom             a.u.   MegaHertz   Gauss  10(-4) cm-1        Axes

              Baa    -0.0000    -0.000    -0.000    -0.000  0.0000  1.0000  0.0050
     1 C(13)  Bbb    -0.0000    -0.000    -0.000    -0.000  0.0000 -0.0050  1.0000
              Bcc     0.0000     0.000     0.000     0.000  1.0000 -0.0000 -0.0000
 
              Baa    -0.0000    -0.000    -0.000    -0.000  1.0000 -0.0000 -0.0000
     2 C(13)  Bbb     0.0000     0.000     0.000     0.000  0.0000  0.3661  0.9306
              Bcc     0.0000     0.000     0.000     0.000  0.0000  0.9306 -0.3661
 
              Baa    -0.0000    -0.000    -0.000    -0.000  0.0000  0.1708  0.9853
     3 H(1)   Bbb     0.0000     0.000     0.000     0.000  1.0000 -0.0000 -0.0000
              Bcc     0.0000     0.000     0.000     0.000  0.0000  0.9853 -0.1708
 
              Baa    -0.0000    -0.000    -0.000    -0.000  1.0000 -0.0000 -0.0000
     4 H(1)   Bbb    -0.0000    -0.000    -0.000    -0.000  0.0000  0.0402  0.9992
              Bcc     0.0000     0.000     0.000     0.000  0.0000  0.9992 -0.0402
 
              Baa    -0.0000    -0.000    -0.000    -0.000  0.0000  0.9974 -0.0718
     5 H(1)   Bbb    -0.0000    -0.000    -0.000    -0.000  1.0000 -0.0000 -0.0000
              Bcc     0.0000     0.000     0.000     0.000  0.0000  0.0718  0.9974
 
              Baa    -0.0000    -0.000    -0.000    -0.000 -0.0000 -0.6208  0.7840
     6 C(13)  Bbb    -0.0000    -0.000    -0.000    -0.000 -0.0000  0.7840  0.6208
              Bcc     0.0000     0.000     0.000     0.000  1.0000  0.0000  0.0000
 
              Baa    -0.0000    -0.000    -0.000    -0.000  1.0000 -0.0000 -0.0000
     7 C(13)  Bbb     0.0000     0.000     0.000     0.000  0.0000  0.9584  0.2854
              Bcc     0.0000     0.000     0.000     0.000 -0.0000 -0.2854  0.9584
 
              Baa    -0.0000    -0.000    -0.000    -0.000  0.0000  0.9335  0.3585
     8 H(1)   Bbb     0.0000     0.000     0.000     0.000  1.0000 -0.0000 -0.0000
              Bcc     0.0000     0.000     0.000     0.000 -0.0000 -0.3585  0.9335
 
              Baa    -0.0000    -0.000    -0.000    -0.000 -0.0000 -0.4496  0.8932
     9 H(1)   Bbb    -0.0000    -0.000    -0.000    -0.000  1.0000  0.0000  0.0000
              Bcc     0.0000     0.000     0.000     0.000 -0.0000  0.8932  0.4496
 
              Baa    -0.0000    -0.000    -0.000    -0.000 -0.0000 -0.3365  0.9417
    10 H(1)   Bbb     0.0000     0.000     0.000     0.000 -0.0000  0.9417  0.3365
              Bcc     0.0000     0.000     0.000     0.000  1.0000  0.0000  0.0000
 

 ---------------------------------------------------------------------------------

 No NMR shielding tensors so no spin-rotation constants.
 Leave Link  601 at Mon Jan  8 21:33:43 2024, MaxMem=   104857600 cpu:               0.2 elap:               0.2
 (Enter /home/kangmg/compchem/gaussian/g16/l608.exe)
 IExCor=  402 DFT=T Ex+Corr=B3LYP ExCW=0 ScaHFX=  0.200000
 ScaDFX=  0.800000  0.720000  1.000000  0.810000 ScalE2=  1.000000  1.000000
 IRadAn=      5 IRanWt=     -1 IRanGd=            0 ICorTp=0 IEmpDi=  4
 A total of   1 models will be applied.

 Results using SCF density:
 FoFJK:  IHMeth= 0 ICntrl=     500 DoSepK=F KAlg= 0 I1Cent=           0 FoldK=F
 IRaf=         0 NMat=       2 IRICut=       1 DoRegI=T DoRafI=F ISym2E= 0 IDoP0=0 IntGTp=1.
 FoFCou: FMM=F IPFlag=           0 FMFlag=           0 FMFlg1=           0
         NFxFlg=           0 DoJE=F BraDBF=F KetDBF=F FulRan=T
         wScrn=  0.000000 ICntrl=       500 IOpCl=  1 I1Cent=           0 NGrid=           0
         NMat0=    2 NMatS0=      2 NMatT0=    0 NMatD0=    2 NMtDS0=    0 NMtDT0=    0
 Symmetry not used in FoFCou.
 ET=  154.196376 EV= -566.976015 EJ=  177.277202 EK=  -22.726786 ENuc=  103.330932

 A=0 I=   1 IExCor=  402 IRadAn=       5 ScaHFX=  0.200000
            ScaDFX=  0.800000  0.720000  1.000000  0.810000
 HFx=  0.000000  0.000000  1.000000  0.000000  0.000000
 DFx=  0.000000  0.000000  1.000000  0.000000  0.000000
 DFc=  0.000000  0.000000  1.000000  0.000000  0.000000
            ENTVJ= -132.171505 Ex=  -22.580528 Ec=   -1.243686 ETotM2e= -328.7275639802  ETot= -155.9957189988
 Leave Link  608 at Mon Jan  8 21:33:46 2024, MaxMem=   104857600 cpu:               2.4 elap:               2.4
 (Enter /home/kangmg/compchem/gaussian/g16/l9999.exe)

 Test job not archived.
 1\1\GINC-KANGMG-22\SP\UB3LYP\6-31G(d)\C4H6\KANGMG\08-Jan-2024\0\\#p b3
 lyp/6-31G* em=gd3bj ExtraLinks=L608 nosymm guess=read\\opted geometry\
 \0,1\C,0,0.00000224,-0.2636923,0.89697912\C,0,-0.0000071,-1.56358824,0
 .50253404\H,0,-0.00001746,-1.86209191,-0.5498212\H,0,-0.00000955,-2.37
 895924,1.22916349\H,0,0.00000968,-0.0474458,1.97194538\C,0,0.00000224,
 0.93489629,-1.35030462\C,0,0.00000224,0.93489629,0.00812107\H,0,0.0000
 0706,1.90076279,0.52717528\H,0,0.00000528,0.01456624,-1.94153093\H,0,0
 .00000938,1.86698445,-1.91954575\\Version=ES64L-G16RevA.03\HF=-155.995
 719\S2=0.\S2-1=0.\S2A=0.\RMSD=9.095e-09\Dipole=0.0000023,0.0183333,0.0
 247225\Quadrupole=-2.7408104,1.3349685,1.4058419,0.000029,0.0000021,0.
 11678\PG=C01 [X(C4H6)]\\@


 THERE IS NOTHING NOBLE IN BEING SUPERIOR TO SOME OTHER MAN.
 TRUE NOBILITY IS BEING SUPERIOR TO YOUR FORMER SELF.

                                                   -- HINDU PROVERB
 Job cpu time:       0 days  0 hours  0 minutes 59.8 seconds.
 Elapsed time:       0 days  0 hours  0 minutes 59.8 seconds.
 File lengths (MBytes):  RWF=     10 Int=      0 D2E=      0 Chk=      1 Scr=      1
 Normal termination of Gaussian 16 at Mon Jan  8 21:33:46 2024.
