 Entering Gaussian System, Link 0=g16
 Initial command:
 /home/kangmg/compchem/gaussian/g16/l1.exe "/home/kangmg/compchem/gaussian/scratch/Gau-32184.inp" -scrdir="/home/kangmg/compchem/gaussian/scratch/"
 Entering Link 1 = /home/kangmg/compchem/gaussian/g16/l1.exe PID=     32186.
  
 Copyright (c) 1988,1990,1992,1993,1995,1998,2003,2009,2016,
            Gaussian, Inc.  All Rights Reserved.
  
 This is part of the Gaussian(R) 16 program.  It is based on
 the Gaussian(R) 09 system (copyright 2009, Gaussian, Inc.),
 the Gaussian(R) 03 system (copyright 2003, Gaussian, Inc.),
 the Gaussian(R) 98 system (copyright 1998, Gaussian, Inc.),
 the Gaussian(R) 94 system (copyright 1995, Gaussian, Inc.),
 the Gaussian 92(TM) system (copyright 1992, Gaussian, Inc.),
 the Gaussian 90(TM) system (copyright 1990, Gaussian, Inc.),
 the Gaussian 88(TM) system (copyright 1988, Gaussian, Inc.),
 the Gaussian 86(TM) system (copyright 1986, Carnegie Mellon
 University), and the Gaussian 82(TM) system (copyright 1983,
 Carnegie Mellon University). Gaussian is a federally registered
 trademark of Gaussian, Inc.
  
 This software contains proprietary and confidential information,
 including trade secrets, belonging to Gaussian, Inc.
  
 This software is provided under written license and may be
 used, copied, transmitted, or stored only in accord with that
 written license.
  
 The following legend is applicable only to US Government
 contracts under FAR:
  
                    RESTRICTED RIGHTS LEGEND
  
 Use, reproduction and disclosure by the US Government is
 subject to restrictions as set forth in subparagraphs (a)
 and (c) of the Commercial Computer Software - Restricted
 Rights clause in FAR 52.227-19.
  
 Gaussian, Inc.
 340 Quinnipiac St., Bldg. 40, Wallingford CT 06492
  
  
 ---------------------------------------------------------------
 Warning -- This program may not be used in any manner that
 competes with the business of Gaussian, Inc. or will provide
 assistance to any competitor of Gaussian, Inc.  The licensee
 of this program is prohibited from giving any competitor of
 Gaussian, Inc. access to this program.  By using this program,
 the user acknowledges that Gaussian, Inc. is engaged in the
 business of creating and licensing software in the field of
 computational chemistry and represents and warrants to the
 licensee that it is not a competitor of Gaussian, Inc. and that
 it will not use this program in any manner prohibited above.
 ---------------------------------------------------------------
  

 Cite this work as:
 Gaussian 16, Revision A.03,
 M. J. Frisch, G. W. Trucks, H. B. Schlegel, G. E. Scuseria, 
 M. A. Robb, J. R. Cheeseman, G. Scalmani, V. Barone, 
 G. A. Petersson, H. Nakatsuji, X. Li, M. Caricato, A. V. Marenich, 
 J. Bloino, B. G. Janesko, R. Gomperts, B. Mennucci, H. P. Hratchian, 
 J. V. Ortiz, A. F. Izmaylov, J. L. Sonnenberg, D. Williams-Young, 
 F. Ding, F. Lipparini, F. Egidi, J. Goings, B. Peng, A. Petrone, 
 T. Henderson, D. Ranasinghe, V. G. Zakrzewski, J. Gao, N. Rega, 
 G. Zheng, W. Liang, M. Hada, M. Ehara, K. Toyota, R. Fukuda, 
 J. Hasegawa, M. Ishida, T. Nakajima, Y. Honda, O. Kitao, H. Nakai, 
 T. Vreven, K. Throssell, J. A. Montgomery, Jr., J. E. Peralta, 
 F. Ogliaro, M. J. Bearpark, J. J. Heyd, E. N. Brothers, K. N. Kudin, 
 V. N. Staroverov, T. A. Keith, R. Kobayashi, J. Normand, 
 K. Raghavachari, A. P. Rendell, J. C. Burant, S. S. Iyengar, 
 J. Tomasi, M. Cossi, J. M. Millam, M. Klene, C. Adamo, R. Cammi, 
 J. W. Ochterski, R. L. Martin, K. Morokuma, O. Farkas, 
 J. B. Foresman, and D. J. Fox, Gaussian, Inc., Wallingford CT, 2016.
 
 ******************************************
 Gaussian 16:  ES64L-G16RevA.03 25-Dec-2016
                 8-Jan-2024 
 ******************************************
 %chk=1_fragment1.chk
 -----------------------------------------------
 #p b3lyp/6-31G* em=gd3bj ExtraLinks=L608 nosymm
 -----------------------------------------------
 1/38=1,172=1/1;
 2/12=2,15=1,17=6,18=5,40=1/2;
 3/5=1,6=6,7=1,11=2,25=1,30=1,74=-5,124=41/1,2,3;
 4//1;
 5/5=2,38=5/2;
 6/7=2,8=2,9=2,10=2,28=1/1,8;
 99/5=1,9=1/99;
 Leave Link    1 at Mon Jan  8 21:32:14 2024, MaxMem=           0 cpu:               0.0 elap:               0.0
 (Enter /home/kangmg/compchem/gaussian/g16/l101.exe)
 --------------
 opted geometry
 --------------
 Symbolic Z-matrix:
 Charge =  0 Multiplicity = 2
 C                     0.       -0.26369   0.89698 
 C                    -0.00001  -1.56359   0.50253 
 H                    -0.00002  -1.86209  -0.54982 
 H                    -0.00001  -2.37896   1.22916 
 H                     0.00001  -0.04745   1.97195 
 
 ITRead=  0  0  0  0  0
 MicOpt= -1 -1 -1 -1 -1
 NAtoms=      5 NQM=        5 NQMF=       0 NMMI=      0 NMMIF=      0
                NMic=       0 NMicF=      0.
                    Isotopes and Nuclear Properties:
 (Nuclear quadrupole moments (NQMom) in fm**2, nuclear magnetic moments (NMagM)
  in nuclear magnetons)

  Atom         1           2           3           4           5
 IAtWgt=          12          12           1           1           1
 AtmWgt=  12.0000000  12.0000000   1.0078250   1.0078250   1.0078250
 NucSpn=           0           0           1           1           1
 AtZEff=  -0.0000000  -0.0000000  -0.0000000  -0.0000000  -0.0000000
 NQMom=    0.0000000   0.0000000   0.0000000   0.0000000   0.0000000
 NMagM=    0.0000000   0.0000000   2.7928460   2.7928460   2.7928460
 AtZNuc=   6.0000000   6.0000000   1.0000000   1.0000000   1.0000000
 Leave Link  101 at Mon Jan  8 21:32:15 2024, MaxMem=   104857600 cpu:               0.3 elap:               0.7
 (Enter /home/kangmg/compchem/gaussian/g16/l202.exe)
                          Input orientation:                          
 ---------------------------------------------------------------------
 Center     Atomic      Atomic             Coordinates (Angstroms)
 Number     Number       Type             X           Y           Z
 ---------------------------------------------------------------------
      1          6           0        0.000002   -0.263692    0.896979
      2          6           0       -0.000007   -1.563588    0.502534
      3          1           0       -0.000017   -1.862092   -0.549821
      4          1           0       -0.000010   -2.378959    1.229163
      5          1           0        0.000010   -0.047446    1.971945
 ---------------------------------------------------------------------
                    Distance matrix (angstroms):
                    1          2          3          4          5
     1  C    0.000000
     2  C    1.358424   0.000000
     3  H    2.155948   1.093872   0.000000
     4  H    2.141191   1.092163   1.852549   0.000000
     5  H    1.096501   2.111364   3.106807   2.446974   0.000000
 Symmetry turned off by external request.
 Stoichiometry    C2H3(2)
 Framework group  C1[X(C2H3)]
 Deg. of freedom     9
 Full point group                 C1      NOp   1
 Rotational constants (GHZ):         200.5445949          32.0582976          27.6398898
 Leave Link  202 at Mon Jan  8 21:32:15 2024, MaxMem=   104857600 cpu:               0.0 elap:               0.2
 (Enter /home/kangmg/compchem/gaussian/g16/l301.exe)
 Standard basis: 6-31G(d) (6D, 7F)
 Ernie: Thresh=  0.10000D-02 Tol=  0.10000D-05 Strict=F.
    36 basis functions,    68 primitive gaussians,    36 cartesian basis functions
     8 alpha electrons        7 beta electrons
       nuclear repulsion energy        27.8608159122 Hartrees.
 IExCor=  402 DFT=T Ex+Corr=B3LYP ExCW=0 ScaHFX=  0.200000
 ScaDFX=  0.800000  0.720000  1.000000  0.810000 ScalE2=  1.000000  1.000000
 IRadAn=      5 IRanWt=     -1 IRanGd=            0 ICorTp=0 IEmpDi=141
 NAtoms=    5 NActive=    5 NUniq=    5 SFac= 1.00D+00 NAtFMM=   60 NAOKFM=F Big=F
 Integral buffers will be    131072 words long.
 Raffenetti 2 integral format.
 Two-electron integral symmetry is turned off.
 R6Disp:  Grimme-D3(BJ) Dispersion energy=       -0.0031058010 Hartrees.
 Nuclear repulsion after empirical dispersion term =       27.8577101112 Hartrees.
 Leave Link  301 at Mon Jan  8 21:32:15 2024, MaxMem=   104857600 cpu:               0.1 elap:               0.1
 (Enter /home/kangmg/compchem/gaussian/g16/l302.exe)
 NPDir=0 NMtPBC=     1 NCelOv=     1 NCel=       1 NClECP=     1 NCelD=      1
         NCelK=      1 NCelE2=     1 NClLst=     1 CellRange=     0.0.
 One-electron integrals computed using PRISM.
 NBasis=    36 RedAO= T EigKep=  8.31D-03  NBF=    36
 NBsUse=    36 1.00D-06 EigRej= -1.00D+00 NBFU=    36
 Precomputing XC quadrature grid using
 IXCGrd= 4 IRadAn=           5 IRanWt=          -1 IRanGd=           0 AccXCQ= 0.00D+00.
 Generated NRdTot=       0 NPtTot=           0 NUsed=           0 NTot=          32
 NSgBfM=    36    36    36    36    36 MxSgAt=     5 MxSgA2=     5.
 Leave Link  302 at Mon Jan  8 21:32:16 2024, MaxMem=   104857600 cpu:               0.2 elap:               0.3
 (Enter /home/kangmg/compchem/gaussian/g16/l303.exe)
 DipDrv:  MaxL=1.
 Leave Link  303 at Mon Jan  8 21:32:16 2024, MaxMem=   104857600 cpu:               0.0 elap:               0.1
 (Enter /home/kangmg/compchem/gaussian/g16/l401.exe)
 ExpMin= 1.61D-01 ExpMax= 3.05D+03 ExpMxC= 4.57D+02 IAcc=3 IRadAn=         5 AccDes= 0.00D+00
 Harris functional with IExCor=  402 and IRadAn=       5 diagonalized for initial guess.
 HarFok:  IExCor=  402 AccDes= 0.00D+00 IRadAn=         5 IDoV= 1 UseB2=F ITyADJ=14
 ICtDFT=  3500011 ScaDFX=  1.000000  1.000000  1.000000  1.000000
 FoFCou: FMM=F IPFlag=           0 FMFlag=      100000 FMFlg1=           0
         NFxFlg=           0 DoJE=T BraDBF=F KetDBF=T FulRan=T
         wScrn=  0.000000 ICntrl=       500 IOpCl=  0 I1Cent=   200000004 NGrid=           0
         NMat0=    1 NMatS0=      1 NMatT0=    0 NMatD0=    1 NMtDS0=    0 NMtDT0=    0
 Symmetry not used in FoFCou.
 Harris En= -77.8888669900703    
 JPrj=0 DoOrth=F DoCkMO=F.
 Initial guess <Sx>= 0.0000 <Sy>= 0.0000 <Sz>= 0.5000 <S**2>= 0.7500 S= 0.5000
 Leave Link  401 at Mon Jan  8 21:32:17 2024, MaxMem=   104857600 cpu:               0.7 elap:               0.9
 (Enter /home/kangmg/compchem/gaussian/g16/l502.exe)
 Keep R1 and R2 ints in memory in canonical form, NReq=1307300.
 FoFCou: FMM=F IPFlag=           0 FMFlag=           0 FMFlg1=           0
         NFxFlg=           0 DoJE=F BraDBF=F KetDBF=F FulRan=T
         wScrn=  0.000000 ICntrl=       600 IOpCl=  0 I1Cent=           0 NGrid=           0
         NMat0=    1 NMatS0=    666 NMatT0=    0 NMatD0=    1 NMtDS0=    0 NMtDT0=    0
 Symmetry not used in FoFCou.
 Two-electron integral symmetry not used.
 UHF open shell SCF:
 Using DIIS extrapolation, IDIIS=  1040.
 NGot=   104857600 LenX=   104410073 LenY=   104408336
 Requested convergence on RMS density matrix=1.00D-08 within 128 cycles.
 Requested convergence on MAX density matrix=1.00D-06.
 Requested convergence on             energy=1.00D-06.
 No special actions if energy rises.
 Integral accuracy reduced to 1.0D-05 until final iterations.

 Cycle   1  Pass 0  IDiag  1:
 E= -77.8304974610091    
 DIIS: error= 4.55D-02 at cycle   1 NSaved=   1.
 NSaved= 1 IEnMin= 1 EnMin= -77.8304974610091     IErMin= 1 ErrMin= 4.55D-02
 ErrMax= 4.55D-02  0.00D+00 EMaxC= 1.00D-01 BMatC= 2.28D-01 BMatP= 2.28D-01
 IDIUse=3 WtCom= 5.45D-01 WtEn= 4.55D-01
 Coeff-Com:  0.100D+01
 Coeff-En:   0.100D+01
 Coeff:      0.100D+01
 Gap=     0.307 Goal=   None    Shift=    0.000
 Gap=     0.118 Goal=   None    Shift=    0.000
 GapD=    0.118 DampG=1.000 DampE=0.500 DampFc=0.5000 IDamp=-1.
 Damping current iteration by 5.00D-01
 RMSDP=1.28D-02 MaxDP=1.37D-01              OVMax= 1.98D-01

 Cycle   2  Pass 0  IDiag  1:
 E= -77.8597241245534     Delta-E=       -0.029226663544 Rises=F Damp=T
 DIIS: error= 1.26D-02 at cycle   2 NSaved=   2.
 NSaved= 2 IEnMin= 2 EnMin= -77.8597241245534     IErMin= 2 ErrMin= 1.26D-02
 ErrMax= 1.26D-02  0.00D+00 EMaxC= 1.00D-01 BMatC= 1.47D-02 BMatP= 2.28D-01
 IDIUse=3 WtCom= 8.74D-01 WtEn= 1.26D-01
 Coeff-Com:  0.635D-01 0.937D+00
 Coeff-En:   0.874D-01 0.913D+00
 Coeff:      0.665D-01 0.934D+00
 Gap=     0.269 Goal=   None    Shift=    0.000
 Gap=     0.169 Goal=   None    Shift=    0.000
 RMSDP=2.94D-03 MaxDP=3.95D-02 DE=-2.92D-02 OVMax= 1.48D-01

 Cycle   3  Pass 0  IDiag  1:
 E= -77.8907594457966     Delta-E=       -0.031035321243 Rises=F Damp=F
 DIIS: error= 1.88D-02 at cycle   3 NSaved=   3.
 NSaved= 3 IEnMin= 3 EnMin= -77.8907594457966     IErMin= 2 ErrMin= 1.26D-02
 ErrMax= 1.88D-02  0.00D+00 EMaxC= 1.00D-01 BMatC= 1.83D-02 BMatP= 1.47D-02
 IDIUse=2 WtCom= 0.00D+00 WtEn= 1.00D+00
 Coeff-En:   0.000D+00 0.000D+00 0.100D+01
 Coeff:      0.000D+00 0.000D+00 0.100D+01
 Gap=     0.289 Goal=   None    Shift=    0.000
 Gap=     0.145 Goal=   None    Shift=    0.000
 RMSDP=4.64D-03 MaxDP=6.94D-02 DE=-3.10D-02 OVMax= 1.36D-01

 Cycle   4  Pass 0  IDiag  1:
 E= -77.8755247278106     Delta-E=        0.015234717986 Rises=F Damp=F
 DIIS: error= 3.55D-02 at cycle   4 NSaved=   4.
 NSaved= 4 IEnMin= 3 EnMin= -77.8907594457966     IErMin= 2 ErrMin= 1.26D-02
 ErrMax= 3.55D-02  0.00D+00 EMaxC= 1.00D-01 BMatC= 7.41D-02 BMatP= 1.47D-02
 IDIUse=2 WtCom= 0.00D+00 WtEn= 1.00D+00
 Coeff-En:   0.000D+00 0.000D+00 0.748D+00 0.252D+00
 Coeff:      0.000D+00 0.000D+00 0.748D+00 0.252D+00
 Gap=     0.276 Goal=   None    Shift=    0.000
 Gap=     0.163 Goal=   None    Shift=    0.000
 RMSDP=2.28D-03 MaxDP=3.19D-02 DE= 1.52D-02 OVMax= 6.41D-02

 Cycle   5  Pass 0  IDiag  1:
 E= -77.8950340738541     Delta-E=       -0.019509346043 Rises=F Damp=F
 DIIS: error= 8.88D-03 at cycle   5 NSaved=   5.
 NSaved= 5 IEnMin= 5 EnMin= -77.8950340738541     IErMin= 5 ErrMin= 8.88D-03
 ErrMax= 8.88D-03  0.00D+00 EMaxC= 1.00D-01 BMatC= 4.04D-03 BMatP= 1.47D-02
 IDIUse=3 WtCom= 9.11D-01 WtEn= 8.88D-02
 Coeff-Com: -0.144D-01 0.194D-01 0.995D-01-0.223D+00 0.112D+01
 Coeff-En:   0.000D+00 0.000D+00 0.205D+00 0.000D+00 0.795D+00
 Coeff:     -0.131D-01 0.177D-01 0.109D+00-0.203D+00 0.109D+01
 Gap=     0.271 Goal=   None    Shift=    0.000
 Gap=     0.170 Goal=   None    Shift=    0.000
 RMSDP=7.89D-04 MaxDP=1.24D-02 DE=-1.95D-02 OVMax= 2.62D-02

 Cycle   6  Pass 0  IDiag  1:
 E= -77.8962177175820     Delta-E=       -0.001183643728 Rises=F Damp=F
 DIIS: error= 1.18D-03 at cycle   6 NSaved=   6.
 NSaved= 6 IEnMin= 6 EnMin= -77.8962177175820     IErMin= 6 ErrMin= 1.18D-03
 ErrMax= 1.18D-03  0.00D+00 EMaxC= 1.00D-01 BMatC= 2.83D-05 BMatP= 4.04D-03
 IDIUse=3 WtCom= 9.88D-01 WtEn= 1.18D-02
 Coeff-Com:  0.169D-02-0.786D-03-0.155D+00 0.468D-01-0.434D+00 0.154D+01
 Coeff-En:   0.000D+00 0.000D+00 0.000D+00 0.000D+00 0.000D+00 0.100D+01
 Coeff:      0.167D-02-0.777D-03-0.153D+00 0.463D-01-0.429D+00 0.153D+01
 Gap=     0.271 Goal=   None    Shift=    0.000
 Gap=     0.171 Goal=   None    Shift=    0.000
 RMSDP=2.54D-04 MaxDP=4.62D-03 DE=-1.18D-03 OVMax= 1.01D-02

 Cycle   7  Pass 0  IDiag  1:
 E= -77.8962638074296     Delta-E=       -0.000046089848 Rises=F Damp=F
 DIIS: error= 3.20D-04 at cycle   7 NSaved=   7.
 NSaved= 7 IEnMin= 7 EnMin= -77.8962638074296     IErMin= 7 ErrMin= 3.20D-04
 ErrMax= 3.20D-04  0.00D+00 EMaxC= 1.00D-01 BMatC= 3.14D-06 BMatP= 2.83D-05
 IDIUse=3 WtCom= 9.97D-01 WtEn= 3.20D-03
 Coeff-Com:  0.332D-02-0.237D-02-0.134D-01 0.482D-01-0.243D+00-0.271D+00
 Coeff-Com:  0.148D+01
 Coeff-En:   0.000D+00 0.000D+00 0.000D+00 0.000D+00 0.000D+00 0.000D+00
 Coeff-En:   0.100D+01
 Coeff:      0.331D-02-0.236D-02-0.134D-01 0.480D-01-0.242D+00-0.270D+00
 Coeff:      0.148D+01
 Gap=     0.272 Goal=   None    Shift=    0.000
 Gap=     0.171 Goal=   None    Shift=    0.000
 RMSDP=1.73D-04 MaxDP=2.85D-03 DE=-4.61D-05 OVMax= 6.15D-03

 Cycle   8  Pass 0  IDiag  1:
 E= -77.8962745640503     Delta-E=       -0.000010756621 Rises=F Damp=F
 DIIS: error= 5.25D-05 at cycle   8 NSaved=   8.
 NSaved= 8 IEnMin= 8 EnMin= -77.8962745640503     IErMin= 8 ErrMin= 5.25D-05
 ErrMax= 5.25D-05  0.00D+00 EMaxC= 1.00D-01 BMatC= 1.65D-07 BMatP= 3.14D-06
 IDIUse=1 WtCom= 1.00D+00 WtEn= 0.00D+00
 Coeff-Com: -0.804D-03 0.198D-02 0.185D-01-0.122D-01 0.776D-01-0.180D+00
 Coeff-Com: -0.827D-01 0.118D+01
 Coeff:     -0.804D-03 0.198D-02 0.185D-01-0.122D-01 0.776D-01-0.180D+00
 Coeff:     -0.827D-01 0.118D+01
 Gap=     0.272 Goal=   None    Shift=    0.000
 Gap=     0.171 Goal=   None    Shift=    0.000
 RMSDP=3.39D-05 MaxDP=5.22D-04 DE=-1.08D-05 OVMax= 1.18D-03

 Cycle   9  Pass 0  IDiag  1:
 E= -77.8962749255980     Delta-E=       -0.000000361548 Rises=F Damp=F
 DIIS: error= 4.73D-06 at cycle   9 NSaved=   9.
 NSaved= 9 IEnMin= 9 EnMin= -77.8962749255980     IErMin= 9 ErrMin= 4.73D-06
 ErrMax= 4.73D-06  0.00D+00 EMaxC= 1.00D-01 BMatC= 3.10D-09 BMatP= 1.65D-07
 IDIUse=1 WtCom= 1.00D+00 WtEn= 0.00D+00
 Coeff-Com:  0.930D-04-0.377D-03-0.306D-02 0.128D-02-0.946D-02 0.352D-01
 Coeff-Com: -0.155D-01-0.202D+00 0.119D+01
 Coeff:      0.930D-04-0.377D-03-0.306D-02 0.128D-02-0.946D-02 0.352D-01
 Coeff:     -0.155D-01-0.202D+00 0.119D+01
 Gap=     0.272 Goal=   None    Shift=    0.000
 Gap=     0.171 Goal=   None    Shift=    0.000
 RMSDP=2.87D-06 MaxDP=3.98D-05 DE=-3.62D-07 OVMax= 8.86D-05

 Initial convergence to 1.0D-05 achieved.  Increase integral accuracy.
 Cycle  10  Pass 1  IDiag  1:
 E= -77.8962748362569     Delta-E=        0.000000089341 Rises=F Damp=F
 DIIS: error= 1.30D-06 at cycle   1 NSaved=   1.
 NSaved= 1 IEnMin= 1 EnMin= -77.8962748362569     IErMin= 1 ErrMin= 1.30D-06
 ErrMax= 1.30D-06  0.00D+00 EMaxC= 1.00D-01 BMatC= 3.43D-10 BMatP= 3.43D-10
 IDIUse=1 WtCom= 1.00D+00 WtEn= 0.00D+00
 Coeff-Com:  0.100D+01
 Coeff:      0.100D+01
 Gap=     0.272 Goal=   None    Shift=    0.000
 Gap=     0.171 Goal=   None    Shift=    0.000
 RMSDP=2.87D-06 MaxDP=3.98D-05 DE= 8.93D-08 OVMax= 7.56D-06

 Cycle  11  Pass 1  IDiag  1:
 E= -77.8962748364048     Delta-E=       -0.000000000148 Rises=F Damp=F
 DIIS: error= 7.25D-07 at cycle   2 NSaved=   2.
 NSaved= 2 IEnMin= 2 EnMin= -77.8962748364048     IErMin= 2 ErrMin= 7.25D-07
 ErrMax= 7.25D-07  0.00D+00 EMaxC= 1.00D-01 BMatC= 7.98D-11 BMatP= 3.43D-10
 IDIUse=1 WtCom= 1.00D+00 WtEn= 0.00D+00
 Coeff-Com:  0.232D+00 0.768D+00
 Coeff:      0.232D+00 0.768D+00
 Gap=     0.272 Goal=   None    Shift=    0.000
 Gap=     0.171 Goal=   None    Shift=    0.000
 RMSDP=2.05D-07 MaxDP=1.61D-06 DE=-1.48D-10 OVMax= 3.50D-06

 Cycle  12  Pass 1  IDiag  1:
 E= -77.8962748364264     Delta-E=       -0.000000000022 Rises=F Damp=F
 DIIS: error= 7.94D-07 at cycle   3 NSaved=   3.
 NSaved= 3 IEnMin= 3 EnMin= -77.8962748364264     IErMin= 2 ErrMin= 7.25D-07
 ErrMax= 7.94D-07  0.00D+00 EMaxC= 1.00D-01 BMatC= 4.17D-11 BMatP= 7.98D-11
 IDIUse=1 WtCom= 1.00D+00 WtEn= 0.00D+00
 Coeff-Com: -0.667D-02 0.385D+00 0.622D+00
 Coeff:     -0.667D-02 0.385D+00 0.622D+00
 Gap=     0.272 Goal=   None    Shift=    0.000
 Gap=     0.171 Goal=   None    Shift=    0.000
 RMSDP=1.20D-07 MaxDP=1.71D-06 DE=-2.16D-11 OVMax= 3.22D-06

 Cycle  13  Pass 1  IDiag  1:
 E= -77.8962748364364     Delta-E=       -0.000000000010 Rises=F Damp=F
 DIIS: error= 5.05D-07 at cycle   4 NSaved=   4.
 NSaved= 4 IEnMin= 4 EnMin= -77.8962748364364     IErMin= 4 ErrMin= 5.05D-07
 ErrMax= 5.05D-07  0.00D+00 EMaxC= 1.00D-01 BMatC= 1.63D-11 BMatP= 4.17D-11
 IDIUse=1 WtCom= 1.00D+00 WtEn= 0.00D+00
 Coeff-Com: -0.108D+00-0.275D-01 0.437D+00 0.699D+00
 Coeff:     -0.108D+00-0.275D-01 0.437D+00 0.699D+00
 Gap=     0.272 Goal=   None    Shift=    0.000
 Gap=     0.171 Goal=   None    Shift=    0.000
 RMSDP=6.38D-08 MaxDP=7.45D-07 DE=-9.99D-12 OVMax= 1.54D-06

 Cycle  14  Pass 1  IDiag  1:
 E= -77.8962748364417     Delta-E=       -0.000000000005 Rises=F Damp=F
 DIIS: error= 7.69D-08 at cycle   5 NSaved=   5.
 NSaved= 5 IEnMin= 5 EnMin= -77.8962748364417     IErMin= 5 ErrMin= 7.69D-08
 ErrMax= 7.69D-08  0.00D+00 EMaxC= 1.00D-01 BMatC= 7.00D-13 BMatP= 1.63D-11
 IDIUse=1 WtCom= 1.00D+00 WtEn= 0.00D+00
 Coeff-Com: -0.393D-01-0.394D-01 0.116D+00 0.282D+00 0.681D+00
 Coeff:     -0.393D-01-0.394D-01 0.116D+00 0.282D+00 0.681D+00
 Gap=     0.272 Goal=   None    Shift=    0.000
 Gap=     0.171 Goal=   None    Shift=    0.000
 RMSDP=1.51D-08 MaxDP=1.55D-07 DE=-5.30D-12 OVMax= 2.98D-07

 Cycle  15  Pass 1  IDiag  1:
 E= -77.8962748364420     Delta-E=       -0.000000000000 Rises=F Damp=F
 DIIS: error= 1.50D-08 at cycle   6 NSaved=   6.
 NSaved= 6 IEnMin= 6 EnMin= -77.8962748364420     IErMin= 6 ErrMin= 1.50D-08
 ErrMax= 1.50D-08  0.00D+00 EMaxC= 1.00D-01 BMatC= 4.10D-14 BMatP= 7.00D-13
 IDIUse=1 WtCom= 1.00D+00 WtEn= 0.00D+00
 Coeff-Com:  0.386D-02-0.715D-02-0.293D-01-0.203D-01 0.168D+00 0.885D+00
 Coeff:      0.386D-02-0.715D-02-0.293D-01-0.203D-01 0.168D+00 0.885D+00
 Gap=     0.272 Goal=   None    Shift=    0.000
 Gap=     0.171 Goal=   None    Shift=    0.000
 RMSDP=4.78D-09 MaxDP=6.89D-08 DE=-2.42D-13 OVMax= 1.29D-07

 SCF Done:  E(UB3LYP) =  -77.8962748364     A.U. after   15 cycles
            NFock= 15  Conv=0.48D-08     -V/T= 2.0115
 <Sx>= 0.0000 <Sy>= 0.0000 <Sz>= 0.5000 <S**2>= 0.7659 S= 0.5079
 <L.S>= 0.000000000000E+00
 KE= 7.700995462238D+01 PE=-2.356726613068D+02 EE= 5.290872173672D+01
 Annihilation of the first spin contaminant:
 S**2 before annihilation     0.7659,   after     0.7501
 Leave Link  502 at Mon Jan  8 21:32:25 2024, MaxMem=   104857600 cpu:               8.3 elap:               8.4
 (Enter /home/kangmg/compchem/gaussian/g16/l601.exe)
 Copying SCF densities to generalized density rwf, IOpCl= 1 IROHF=0.

 **********************************************************************

            Population analysis using the SCF density.

 **********************************************************************

 Alpha  occ. eigenvalues --  -10.22295 -10.19638  -0.75619  -0.57228  -0.45647
 Alpha  occ. eigenvalues --   -0.40635  -0.27296  -0.26651
 Alpha virt. eigenvalues --    0.00526   0.11549   0.14055   0.20504   0.31828
 Alpha virt. eigenvalues --    0.48872   0.54405   0.55843   0.60388   0.62789
 Alpha virt. eigenvalues --    0.65934   0.82390   0.85083   0.92109   0.94365
 Alpha virt. eigenvalues --    1.09408   1.44423   1.54344   1.73851   1.81322
 Alpha virt. eigenvalues --    1.90700   2.05103   2.20034   2.34787   2.55578
 Alpha virt. eigenvalues --    2.66875   4.02056   4.20722
  Beta  occ. eigenvalues --  -10.20672 -10.19793  -0.74011  -0.55239  -0.44053
  Beta  occ. eigenvalues --   -0.39298  -0.26383
  Beta virt. eigenvalues --   -0.09277   0.02012   0.12371   0.14556   0.21355
  Beta virt. eigenvalues --    0.33609   0.50040   0.54846   0.59431   0.63601
  Beta virt. eigenvalues --    0.64179   0.67037   0.83254   0.86602   0.92612
  Beta virt. eigenvalues --    0.96385   1.10625   1.45820   1.56723   1.80075
  Beta virt. eigenvalues --    1.84405   1.91833   2.07615   2.21603   2.36481
  Beta virt. eigenvalues --    2.58194   2.69245   4.04701   4.21969
          Condensed to atoms (all electrons):
               1          2          3          4          5
     1  C    5.215970   0.651606  -0.034373  -0.032956   0.342649
     2  C    0.651606   5.010825   0.368913   0.366200  -0.056818
     3  H   -0.034373   0.368913   0.539346  -0.039691   0.004562
     4  H   -0.032956   0.366200  -0.039691   0.545404  -0.005853
     5  H    0.342649  -0.056818   0.004562  -0.005853   0.559974
          Atomic-Atomic Spin Densities.
               1          2          3          4          5
     1  C    1.134588  -0.021641  -0.008533  -0.019561  -0.029492
     2  C   -0.021641  -0.185170   0.009107   0.008644   0.007177
     3  H   -0.008533   0.009107   0.041267  -0.012996   0.001232
     4  H   -0.019561   0.008644  -0.012996   0.102905  -0.007428
     5  H   -0.029492   0.007177   0.001232  -0.007428   0.053391
 Mulliken charges and spin densities:
               1          2
     1  C   -0.142897   1.055361
     2  C   -0.340726  -0.181883
     3  H    0.161243   0.030078
     4  H    0.166895   0.071563
     5  H    0.155485   0.024881
 Sum of Mulliken charges =  -0.00000   1.00000
 Mulliken charges and spin densities with hydrogens summed into heavy atoms:
               1          2
     1  C    0.012588   1.080242
     2  C   -0.012588  -0.080242
 Electronic spatial extent (au):  <R**2>=            156.1178
 Charge=             -0.0000 electrons
 Dipole moment (field-independent basis, Debye):
    X=             -0.0000    Y=             -0.6477    Z=              0.4661  Tot=              0.7980
 Quadrupole moment (field-independent basis, Debye-Ang):
   XX=            -14.3782   YY=            -10.9226   ZZ=            -10.5211
   XY=              0.0000   XZ=              0.0000   YZ=             -0.2859
 Traceless Quadrupole moment (field-independent basis, Debye-Ang):
   XX=             -2.4375   YY=              1.0181   ZZ=              1.4195
   XY=              0.0000   XZ=              0.0000   YZ=             -0.2859
 Octapole moment (field-independent basis, Debye-Ang**2):
  XXX=              0.0001  YYY=             32.4110  ZZZ=            -23.5231  XYY=             -0.0000
  XXY=             14.3227  XXZ=            -10.4034  XZZ=              0.0001  YZZ=             10.8807
  YYZ=             -7.9482  XYZ=             -0.0000
 Hexadecapole moment (field-independent basis, Debye-Ang**3):
 XXXX=            -15.1528 YYYY=           -117.8795 ZZZZ=            -60.5263 XXXY=             -0.0003
 XXXZ=             -0.0000 YYYX=             -0.0001 YYYZ=             14.7826 ZZZX=              0.0000
 ZZZY=             18.5424 XXYY=            -26.6610 XXZZ=            -15.2811 YYZZ=            -29.2493
 XXYZ=              7.7514 YYXZ=             -0.0000 ZZXY=             -0.0001
 N-N= 2.785771011125D+01 E-N=-2.356726606871D+02  KE= 7.700995462238D+01
                          Isotropic Fermi Contact Couplings
        Atom                 a.u.       MegaHertz       Gauss      10(-4) cm-1
     1  C(13)              0.45186     507.97180     181.25697     169.44115
     2  C(13)             -0.00702      -7.89008      -2.81538      -2.63185
     3  H(1)               0.01505      67.25814      23.99938      22.43490
     4  H(1)               0.03255     145.49252      51.91535      48.53108
     5  H(1)               0.02332     104.24263      37.19636      34.77160
 --------------------------------------------------------
       Center         ----  Spin Dipole Couplings  ----
                      3XX-RR        3YY-RR        3ZZ-RR
 --------------------------------------------------------
     1   Atom       -0.310932      0.235967      0.074965
     2   Atom       -0.184856      0.153823      0.031033
     3   Atom       -0.012586      0.017803     -0.005217
     4   Atom       -0.010973      0.013470     -0.002497
     5   Atom       -0.051001     -0.020212      0.071213
 --------------------------------------------------------
                        XY            XZ            YZ
 --------------------------------------------------------
     1   Atom       -0.000001     -0.000002     -0.674177
     2   Atom        0.000002      0.000001      0.009948
     3   Atom        0.000000      0.000000      0.013739
     4   Atom        0.000000      0.000000      0.001087
     5   Atom        0.000000      0.000001      0.024919
 --------------------------------------------------------


 ---------------------------------------------------------------------------------
              Anisotropic Spin Dipole Couplings in Principal Axis System
 ---------------------------------------------------------------------------------

       Atom             a.u.   MegaHertz   Gauss  10(-4) cm-1        Axes

              Baa    -0.5235   -70.249   -25.066   -23.432  0.0000  0.6639  0.7479
     1 C(13)  Bbb    -0.3109   -41.724   -14.888   -13.918  1.0000 -0.0000 -0.0000
              Bcc     0.8344   111.973    39.955    37.350  0.0000  0.7479 -0.6639
 
              Baa    -0.1849   -24.806    -8.851    -8.274  1.0000 -0.0000 -0.0000
     2 C(13)  Bbb     0.0302     4.057     1.448     1.353  0.0000 -0.0802  0.9968
              Bcc     0.1546    20.749     7.404     6.921  0.0000  0.9968  0.0802
 
              Baa    -0.0126    -6.715    -2.396    -2.240  1.0000 -0.0000  0.0000
     3 H(1)   Bbb    -0.0116    -6.205    -2.214    -2.070 -0.0000 -0.4230  0.9061
              Bcc     0.0242    12.921     4.610     4.310  0.0000  0.9061  0.4230
 
              Baa    -0.0110    -5.854    -2.089    -1.953  1.0000 -0.0000 -0.0000
     4 H(1)   Bbb    -0.0026    -1.372    -0.490    -0.458  0.0000 -0.0676  0.9977
              Bcc     0.0135     7.226     2.579     2.410  0.0000  0.9977  0.0676
 
              Baa    -0.0510   -27.212    -9.710    -9.077  1.0000 -0.0000 -0.0000
     5 H(1)   Bbb    -0.0266   -14.173    -5.057    -4.727  0.0000  0.9690 -0.2470
              Bcc     0.0776    41.384    14.767    13.804  0.0000  0.2470  0.9690
 

 ---------------------------------------------------------------------------------

 No NMR shielding tensors so no spin-rotation constants.
 Leave Link  601 at Mon Jan  8 21:32:25 2024, MaxMem=   104857600 cpu:               0.2 elap:               0.3
 (Enter /home/kangmg/compchem/gaussian/g16/l608.exe)
 IExCor=  402 DFT=T Ex+Corr=B3LYP ExCW=0 ScaHFX=  0.200000
 ScaDFX=  0.800000  0.720000  1.000000  0.810000 ScalE2=  1.000000  1.000000
 IRadAn=      5 IRanWt=     -1 IRanGd=            0 ICorTp=0 IEmpDi=  4
 A total of   1 models will be applied.

 Results using SCF density:
 FoFJK:  IHMeth= 0 ICntrl=     500 DoSepK=F KAlg= 0 I1Cent=           0 FoldK=F
 IRaf=         0 NMat=       2 IRICut=       1 DoRegI=T DoRafI=F ISym2E= 0 IDoP0=0 IntGTp=1.
 FoFCou: FMM=F IPFlag=           0 FMFlag=           0 FMFlg1=           0
         NFxFlg=           0 DoJE=F BraDBF=F KetDBF=F FulRan=T
         wScrn=  0.000000 ICntrl=       500 IOpCl=  1 I1Cent=           0 NGrid=           0
         NMat0=    2 NMatS0=      2 NMatT0=    0 NMatD0=    2 NMtDS0=    0 NMtDT0=    0
 Symmetry not used in FoFCou.
 ET=   77.009955 EV= -235.672661 EJ=   64.758158 EK=  -11.321226 ENuc=   27.857710

 A=0 I=   1 IExCor=  402 IRadAn=       5 ScaHFX=  0.200000
            ScaDFX=  0.800000  0.720000  1.000000  0.810000
 HFx=  0.000000  0.000000  1.000000  0.000000  0.000000
 DFx=  0.000000  0.000000  1.000000  0.000000  0.000000
 DFc=  0.000000  0.000000  1.000000  0.000000  0.000000
            ENTVJ=  -66.046838 Ex=  -11.247144 Ec=   -0.602294 ETotM2e= -140.3901878893  ETot=  -77.8962748364
 Leave Link  608 at Mon Jan  8 21:32:26 2024, MaxMem=   104857600 cpu:               0.7 elap:               0.8
 (Enter /home/kangmg/compchem/gaussian/g16/l9999.exe)

 Test job not archived.
 1\1\GINC-KANGMG-22\SP\UB3LYP\6-31G(d)\C2H3(2)\KANGMG\08-Jan-2024\0\\#p
  b3lyp/6-31G* em=gd3bj ExtraLinks=L608 nosymm\\opted geometry\\0,2\C,0
 ,0.00000224,-0.2636923,0.89697912\C,0,-0.0000071,-1.56358824,0.5025340
 4\H,0,-0.00001746,-1.86209191,-0.5498212\H,0,-0.00000955,-2.37895924,1
 .22916349\H,0,0.00000968,-0.0474458,1.97194538\\Version=ES64L-G16RevA.
 03\HF=-77.8962748\S2=0.765918\S2-1=0.\S2A=0.750053\RMSD=4.785e-09\Dipo
 le=-0.0000017,-0.2548259,0.1833859\Quadrupole=-1.8122466,0.7569031,1.0
 553435,0.0000196,0.0000144,-0.2125762\PG=C01 [X(C2H3)]\\@


 A CHEMICAL PHYSICIST MAKES PRECISE MEASUREMENTS ON IMPURE COMPOUNDS.
 A THEORETICAL PHYSICAL CHEMIST MAKES IMPRECISE
     MEASUREMENTS ON PURE COMPOUNDS.
 AN EXPERIMENTAL PHYSICAL CHEMIST MAKES IMPRECISE
     MEASUREMENTS ON IMPURE COMPOUNDS.
 Job cpu time:       0 days  0 hours  0 minutes 10.8 seconds.
 Elapsed time:       0 days  0 hours  0 minutes 11.8 seconds.
 File lengths (MBytes):  RWF=      6 Int=      0 D2E=      0 Chk=      1 Scr=      1
 Normal termination of Gaussian 16 at Mon Jan  8 21:32:26 2024.
