opted geometry                                                          
SP        UB3LYP                                                      6-31G(d)            
Number of atoms                            I                5
Info1-9                                    I   N=           9
          14          14           0           0           0         111
           1          18        -502
Full Title                                 C   N=           2
opted geometry          
Route                                      C   N=           4
#p b3lyp/6-31G* em=gd3bj ExtraLinks=L608 nosymm 
Charge                                     I                0
Multiplicity                               I                2
Number of electrons                        I               15
Number of alpha electrons                  I                8
Number of beta electrons                   I                7
Number of basis functions                  I               36
Number of independent functions            I               36
Number of point charges in /Mol/           I                0
Number of translation vectors              I                0
Atomic numbers                             I   N=           5
           6           6           1           1           1
Nuclear charges                            R   N=           5
  6.00000000E+00  6.00000000E+00  1.00000000E+00  1.00000000E+00  1.00000000E+00
Current cartesian coordinates              R   N=          15
  4.23298652E-06  1.76669794E+00 -2.55170592E+00  4.23298652E-06  1.76669794E+00
  1.53465981E-02  1.33414664E-05  3.59192110E+00  9.96216899E-01  9.97775394E-06
  2.75262043E-02 -3.66896172E+00  1.77256310E-05  3.52808929E+00 -3.62741575E+00
Number of symbols in /Mol/                 I                0
Force Field                                I                0
Atom Types                                 C   N=           5
                                                            
Int Atom Types                             I   N=           5
           0           0           0           0           0
MM charges                                 R   N=           5
  0.00000000E+00  0.00000000E+00  0.00000000E+00  0.00000000E+00  0.00000000E+00
Integer atomic weights                     I   N=           5
          12          12           1           1           1
Real atomic weights                        R   N=           5
  1.20000000E+01  1.20000000E+01  1.00782504E+00  1.00782504E+00  1.00782504E+00
Atom fragment info                         I   N=           5
           0           0           0           0           0
Atom residue num                           I   N=           5
           0           0           0           0           0
Nuclear spins                              I   N=           5
           0           0           1           1           1
Nuclear ZEff                               R   N=           5
 -3.60000000E+00 -3.60000000E+00 -1.00000000E+00 -1.00000000E+00 -1.00000000E+00
Nuclear ZNuc                               R   N=           5
  6.00000000E+00  6.00000000E+00  1.00000000E+00  1.00000000E+00  1.00000000E+00
Nuclear QMom                               R   N=           5
  0.00000000E+00  0.00000000E+00  0.00000000E+00  0.00000000E+00  0.00000000E+00
Nuclear GFac                               R   N=           5
  0.00000000E+00  0.00000000E+00  2.79284600E+00  2.79284600E+00  2.79284600E+00
MicOpt                                     I   N=           5
          -1          -1          -1          -1          -1
Number of residues                         I                0
Number of secondary structures             I                0
Number of contracted shells                I               14
Number of primitive shells                 I               34
Pure/Cartesian d shells                    I                1
Pure/Cartesian f shells                    I                0
Highest angular momentum                   I                2
Largest degree of contraction              I                6
Shell types                                I   N=          14
           0          -1          -1           2           0          -1
          -1           2           0           0           0           0
           0           0
Number of primitives per shell             I   N=          14
           6           3           1           1           6           3
           1           1           3           1           3           1
           3           1
Shell to atom map                          I   N=          14
           1           1           1           1           2           2
           2           2           3           3           4           4
           5           5
Primitive exponents                        R   N=          34
  3.04752488E+03  4.57369518E+02  1.03948685E+02  2.92101553E+01  9.28666296E+00
  3.16392696E+00  7.86827235E+00  1.88128854E+00  5.44249258E-01  1.68714478E-01
  8.00000000E-01  3.04752488E+03  4.57369518E+02  1.03948685E+02  2.92101553E+01
  9.28666296E+00  3.16392696E+00  7.86827235E+00  1.88128854E+00  5.44249258E-01
  1.68714478E-01  8.00000000E-01  1.87311370E+01  2.82539436E+00  6.40121692E-01
  1.61277759E-01  1.87311370E+01  2.82539436E+00  6.40121692E-01  1.61277759E-01
  1.87311370E+01  2.82539436E+00  6.40121692E-01  1.61277759E-01
Contraction coefficients                   R   N=          34
  1.83473713E-03  1.40373228E-02  6.88426223E-02  2.32184443E-01  4.67941348E-01
  3.62311985E-01 -1.19332420E-01 -1.60854152E-01  1.14345644E+00  1.00000000E+00
  1.00000000E+00  1.83473713E-03  1.40373228E-02  6.88426223E-02  2.32184443E-01
  4.67941348E-01  3.62311985E-01 -1.19332420E-01 -1.60854152E-01  1.14345644E+00
  1.00000000E+00  1.00000000E+00  3.34946043E-02  2.34726953E-01  8.13757326E-01
  1.00000000E+00  3.34946043E-02  2.34726953E-01  8.13757326E-01  1.00000000E+00
  3.34946043E-02  2.34726953E-01  8.13757326E-01  1.00000000E+00
P(S=P) Contraction coefficients            R   N=          34
  0.00000000E+00  0.00000000E+00  0.00000000E+00  0.00000000E+00  0.00000000E+00
  0.00000000E+00  6.89990666E-02  3.16423961E-01  7.44308291E-01  1.00000000E+00
  0.00000000E+00  0.00000000E+00  0.00000000E+00  0.00000000E+00  0.00000000E+00
  0.00000000E+00  0.00000000E+00  6.89990666E-02  3.16423961E-01  7.44308291E-01
  1.00000000E+00  0.00000000E+00  0.00000000E+00  0.00000000E+00  0.00000000E+00
  0.00000000E+00  0.00000000E+00  0.00000000E+00  0.00000000E+00  0.00000000E+00
  0.00000000E+00  0.00000000E+00  0.00000000E+00  0.00000000E+00
Coordinates of each shell                  R   N=          42
  4.23298652E-06  1.76669794E+00 -2.55170592E+00  4.23298652E-06  1.76669794E+00
 -2.55170592E+00  4.23298652E-06  1.76669794E+00 -2.55170592E+00  4.23298652E-06
  1.76669794E+00 -2.55170592E+00  4.23298652E-06  1.76669794E+00  1.53465981E-02
  4.23298652E-06  1.76669794E+00  1.53465981E-02  4.23298652E-06  1.76669794E+00
  1.53465981E-02  4.23298652E-06  1.76669794E+00  1.53465981E-02  1.33414664E-05
  3.59192110E+00  9.96216899E-01  1.33414664E-05  3.59192110E+00  9.96216899E-01
  9.97775394E-06  2.75262043E-02 -3.66896172E+00  9.97775394E-06  2.75262043E-02
 -3.66896172E+00  1.77256310E-05  3.52808929E+00 -3.62741575E+00  1.77256310E-05
  3.52808929E+00 -3.62741575E+00
Num ILSW                                   I              100
ILSW                                       I   N=         100
           1           1           0           0           2           0
           0           0           0           0         402          -1
           5           0           0           0           0           0
           0           0           0           0           0           0
           1           1           0           0           0           0
           0           0      100000           0          -1           0
           0           0           0           0           0           0
           0           0           0           1           0           0
           0 -2000000000           1           0           0           0
           0           0         141          52           0           0
           0           0           5           0           0           0
           0           0           0           5           0           1
           0           0           0           0           0           0
           0           0           0           0           0           0
           0           0           0           0           0           0
           0           0           0           0           0           0
           0           0           0           0
Num RLSW                                   I               52
RLSW                                       R   N=          52
  8.00000000E-01  7.20000000E-01  1.00000000E+00  8.10000000E-01  2.00000000E-01
  0.00000000E+00  0.00000000E+00  1.00000000E+00  0.00000000E+00  0.00000000E+00
  0.00000000E+00  0.00000000E+00  1.00000000E+00  0.00000000E+00  0.00000000E+00
  0.00000000E+00  0.00000000E+00  1.00000000E+00  0.00000000E+00  0.00000000E+00
  0.00000000E+00  0.00000000E+00  1.00000000E+00  0.00000000E+00  0.00000000E+00
  0.00000000E+00  0.00000000E+00  1.00000000E+00  0.00000000E+00  0.00000000E+00
  0.00000000E+00  0.00000000E+00  1.00000000E+00  0.00000000E+00  0.00000000E+00
  0.00000000E+00  0.00000000E+00  0.00000000E+00  1.00000000E+00  1.00000000E+00
  0.00000000E+00  1.00000000E+00  0.00000000E+00  0.00000000E+00  0.00000000E+00
  0.00000000E+00  0.00000000E+00  0.00000000E+00  0.00000000E+00  0.00000000E+00
  0.00000000E+00  0.00000000E+00
MxBond                                     I                3
NBond                                      I   N=           5
           3           2           1           1           1
IBond                                      I   N=          15
           2           4           5           1           3           0
           2           0           0           1           0           0
           1           0           0
RBond                                      R   N=          15
  2.00000000E+00  1.00000000E+00  1.00000000E+00  2.00000000E+00  1.00000000E+00
  0.00000000E+00  1.00000000E+00  0.00000000E+00  0.00000000E+00  1.00000000E+00
  0.00000000E+00  0.00000000E+00  1.00000000E+00  0.00000000E+00  0.00000000E+00
Virial Ratio                               R      2.011509218235806E+00
SCF Energy                                 R     -7.789627431077365E+01
Total Energy                               R     -7.789627431077365E+01
S**2                                       R      7.659181398455930E-01
S**2 after annihilation                    R      7.500531703747809E-01
RMS Density                                R      6.253695212238840E-09
Job Status                                 I                1
Nuclear derivative order                   I                0
External E-field                           R   N=          35
  0.00000000E+00  0.00000000E+00  0.00000000E+00  0.00000000E+00  0.00000000E+00
  0.00000000E+00  0.00000000E+00  0.00000000E+00  0.00000000E+00  0.00000000E+00
  0.00000000E+00  0.00000000E+00  0.00000000E+00  0.00000000E+00  0.00000000E+00
  0.00000000E+00  0.00000000E+00  0.00000000E+00  0.00000000E+00  0.00000000E+00
  0.00000000E+00  0.00000000E+00  0.00000000E+00  0.00000000E+00  0.00000000E+00
  0.00000000E+00  0.00000000E+00  0.00000000E+00  0.00000000E+00  0.00000000E+00
  0.00000000E+00  0.00000000E+00  0.00000000E+00  0.00000000E+00  0.00000000E+00
IOpCl                                      I                1
IROHF                                      I                0
Alpha Orbital Energies                     R   N=          36
 -1.02229539E+01 -1.01963851E+01 -7.56192105E-01 -5.72282563E-01 -4.56464446E-01
 -4.06354059E-01 -2.72956050E-01 -2.66506803E-01  5.25466826E-03  1.15487241E-01
  1.40546917E-01  2.05040036E-01  3.18277573E-01  4.88716533E-01  5.44048989E-01
  5.58426328E-01  6.03877782E-01  6.27893468E-01  6.59343574E-01  8.23895214E-01
  8.50832076E-01  9.21092133E-01  9.43650887E-01  1.09408041E+00  1.44423253E+00
  1.54344491E+00  1.73850834E+00  1.81322220E+00  1.90700244E+00  2.05102663E+00
  2.20034563E+00  2.34786911E+00  2.55577531E+00  2.66874679E+00  4.02056369E+00
  4.20722000E+00
Beta Orbital Energies                      R   N=          36
 -1.02067176E+01 -1.01979324E+01 -7.40109364E-01 -5.52392933E-01 -4.40531813E-01
 -3.92981875E-01 -2.63825784E-01 -9.27756243E-02  2.01166717E-02  1.23712086E-01
  1.45559705E-01  2.13553918E-01  3.36092171E-01  5.00396115E-01  5.48459179E-01
  5.94309106E-01  6.36009126E-01  6.41795068E-01  6.70371739E-01  8.32534968E-01
  8.66018958E-01  9.26114972E-01  9.63851447E-01  1.10624875E+00  1.45819795E+00
  1.56723249E+00  1.80075340E+00  1.84405386E+00  1.91832651E+00  2.07614953E+00
  2.21603102E+00  2.36480955E+00  2.58193772E+00  2.69244602E+00  4.04701067E+00
  4.21969470E+00
Alpha MO coefficients                      R   N=        1296
  1.36501314E-02  1.56806150E-04  1.70732040E-10 -5.64044392E-05 -3.80863641E-04
  4.55934955E-03  2.21627792E-09  8.48856095E-04  2.20061137E-03 -2.94541308E-04
 -3.24454235E-04 -3.89998619E-04  3.38483146E-10  1.61045048E-10  1.61400941E-05
  9.92481460E-01  4.96971416E-02 -1.52599750E-10  2.41397148E-04 -7.80534440E-05
 -1.17493076E-02 -7.06128548E-09 -1.64397035E-03  1.72728121E-03 -1.01332485E-02
 -9.75146137E-03 -9.71956219E-03  1.50945946E-09 -3.88510153E-10 -1.23353190E-04
 -2.32785246E-04  2.55965806E-03 -4.31783616E-05  5.04126619E-04 -1.70774606E-04
 -2.32272398E-04  9.92686766E-01  4.87434374E-02  4.47736059E-09  2.77939718E-05
 -6.44327827E-06 -1.27855874E-02 -1.38678552E-08 -1.13682949E-04 -8.27820252E-04
 -9.69199118E-03 -9.30252719E-03 -9.02119060E-03  1.00793191E-09 -2.25431688E-09
  8.08803579E-06 -1.40880470E-02 -1.18773332E-03  4.02471547E-10  5.18825039E-06
  4.29667124E-04  4.40227418E-03  3.64831070E-09  9.46010643E-05 -1.85646012E-03
  1.75924760E-05 -6.25065838E-05 -2.25612649E-04 -1.65160793E-10 -1.02147080E-09
  1.11261160E-05 -8.30929745E-05 -5.63232541E-05 -3.59151383E-04  2.13882846E-03
 -3.32478766E-04  2.23609250E-03 -1.63260500E-01  3.18417488E-01  4.31826121E-07
  1.02296800E-02  9.79649330E-02  2.32575090E-01  1.71393516E-07  7.24331994E-03
  2.47324846E-04 -1.85368644E-02  7.79744374E-04  8.80326217E-03  5.83329773E-08
 -6.35122028E-08  1.21832244E-03 -1.55611411E-01  3.13090790E-01  2.19548830E-07
  3.35303577E-02 -1.19319540E-01  2.41705929E-01  5.89458383E-08  1.02852755E-02
 -1.40072850E-02 -1.70940541E-02 -1.13651112E-03  5.91319939E-03  7.62272879E-08
  4.88267232E-09  4.60332299E-05  9.34598654E-02  2.06124079E-02  8.53324153E-02
  2.03734684E-02  9.38339900E-02  1.92210852E-02  1.14170123E-01 -2.30627455E-01
 -8.93388784E-07  2.96278445E-02  2.08877712E-01 -2.35051273E-01 -3.17465474E-07
  1.30605702E-02  7.27948443E-02  1.16327353E-02 -1.53044677E-02  8.34710347E-03
 -5.71193113E-08  1.42215847E-07  1.73189930E-03 -1.28868110E-01  2.69167197E-01
  3.20172232E-07  1.04115766E-01  1.19877577E-01  2.65768470E-01  1.21181432E-07
  2.61118537E-02  4.39379001E-02 -1.22125121E-02  1.02404739E-02 -1.13757249E-02
  1.15323496E-07  6.30431622E-08  4.99101300E-03  1.86539416E-01  9.48256187E-02
 -1.64134108E-01 -7.61784488E-02 -1.45707125E-01 -7.26069310E-02  8.14957102E-04
 -1.88258726E-03  1.54337158E-06  3.44931598E-01 -2.00745956E-01 -1.60198463E-02
  5.73929158E-07  1.27739606E-01 -7.47773099E-02 -3.74750547E-04  1.10955190E-02
 -3.91087781E-03  2.29577631E-07 -7.10690834E-08 -1.13608683E-02  3.46326582E-02
 -7.95206057E-02  1.14396057E-06  2.50624568E-01  1.55337291E-01 -7.07187142E-02
  3.98389785E-07  9.42278996E-02  1.94582319E-02  1.25300469E-03  1.23652510E-02
 -1.80656786E-03  7.24170514E-08 -1.75537253E-08 -3.14297605E-03  1.36508577E-01
  1.14885813E-01 -1.03615210E-01 -7.52646522E-02  2.44773010E-01  1.89136007E-01
  1.87994248E-02 -4.13866591E-02  7.13854047E-07 -2.49815996E-01 -3.17450395E-01
 -3.65355800E-02  3.41905075E-07 -9.40558169E-02 -1.19658998E-01  1.32072788E-03
  1.31406327E-02 -2.29316603E-03 -1.16099823E-07 -2.02132000E-08  1.55497842E-02
 -1.25542716E-02  2.31229273E-02  1.07644768E-06  5.15269285E-02  3.66025419E-01
  8.37289523E-02  3.73183466E-07 -2.20699208E-03  1.24152401E-01 -8.23652105E-04
  1.38798784E-02 -9.27106373E-03  7.69525759E-08  1.35290536E-08  1.66719419E-02
  1.72394168E-01  1.59327855E-01  2.32744594E-01  2.03205757E-01 -5.26854571E-02
 -4.25578834E-02  1.32502844E-07 -2.13158333E-07  3.79260997E-01 -1.98119577E-06
  2.79744541E-06 -8.93732164E-07  2.70853994E-01 -1.09170520E-06  1.55599478E-06
  7.18772728E-08 -6.63820634E-08 -2.41091203E-08  8.78860982E-04  1.64113580E-02
  1.98244318E-07  6.63113853E-07 -1.29437930E-06  4.35319198E-01  2.64594329E-06
 -3.69927247E-06 -3.97363902E-06  2.92675002E-01  1.72547909E-06 -2.27283014E-06
  3.11473761E-08  6.04490101E-08  1.05305567E-07  2.00592493E-03 -1.60595126E-02
  1.33299561E-07  1.10797719E-06  1.20560010E-06  8.62184294E-07  8.08045443E-07
 -1.25002756E-06 -1.76762887E-06 -2.26956606E-02  5.64634159E-02 -4.25711353E-06
 -1.32365572E-01  1.13113818E-01  1.15274145E-02 -2.90549600E-06 -4.75346915E-02
  2.17653792E-02 -1.25081308E-03 -2.13002066E-03 -3.08648504E-03 -1.30013294E-07
 -5.16792897E-08  2.98186110E-02  7.27143997E-02 -1.51510867E-01 -2.59519069E-06
  4.61769530E-01 -2.58581888E-01 -3.50125112E-01 -1.88016580E-06  3.00005510E-01
 -2.10089944E-01  9.71177993E-04  9.65965878E-03  1.05650452E-02  2.88381328E-08
  2.12072704E-07  1.26569581E-02  1.43275156E-01  1.74982282E-01  1.08151744E-01
  1.29015371E-01 -1.52924593E-01 -2.07133493E-01  7.41573443E-07 -1.37864070E-06
  4.36035171E-01 -9.17177508E-07  1.58886089E-06 -5.06347590E-06  6.22035173E-01
 -1.14017534E-06  3.35524227E-06  1.18843068E-07  2.88838250E-08  3.70990602E-08
  7.02734469E-04 -2.41644887E-02  1.28469719E-07 -2.35066507E-07  6.67584814E-07
 -4.28836015E-01  1.92418886E-06 -3.60508860E-07 -6.75266075E-08 -5.74676829E-01
  2.62811768E-06  6.96185396E-07 -2.28657934E-08  4.01808656E-08 -4.85246839E-08
 -2.24867863E-03 -2.48402198E-02  2.04084739E-08 -4.54801484E-07 -1.45092577E-06
  1.28790262E-06  3.70383746E-06  8.36100526E-07  2.26472278E-06  7.56871191E-02
 -1.21552664E-01 -1.87955931E-06 -1.62031270E-01  1.64025694E-01 -1.14383882E+00
 -5.27758680E-06 -2.85007070E-01  5.56177557E-01  4.07595176E-03  1.05334657E-02
 -3.35355856E-03  6.39008537E-08  3.23296571E-08 -1.39733824E-02  5.90927939E-02
 -9.96674759E-02 -7.28740234E-07 -2.01946465E-01 -1.48348352E-01 -1.00702066E+00
 -1.22676289E-06 -5.33800141E-01 -3.20161883E-01  1.51816989E-03  1.11089616E-02
 -4.48441585E-03  6.76386904E-08  1.02582811E-07  1.19879273E-02  7.87197604E-02
  1.32222774E+00 -9.97176192E-04  4.21977210E-01  7.92685743E-02  1.33471870E+00
 -1.14681102E-01  1.71089277E-01  2.08902240E-06 -1.76349494E-01 -1.46024808E-01
  1.76790067E+00  6.25752929E-06 -4.67716539E-01 -3.04108989E-01 -8.64304624E-03
 -4.92534183E-03 -6.50598710E-03  6.07778729E-08 -1.60933702E-07 -1.41313057E-02
  6.56573341E-02 -8.90523872E-02 -1.74881662E-06 -1.65828763E-01 -2.55833172E-02
 -9.47601224E-01 -4.85802092E-06 -2.91465591E-01  6.17866244E-02  7.45418232E-03
 -1.40261475E-03  1.10204935E-02  2.79768883E-08 -9.01330817E-08  1.72389151E-02
  8.32631064E-02  9.60059813E-01 -1.00907932E-01 -1.66873801E+00 -1.47019576E-02
 -4.71623792E-01  3.19768587E-02 -1.28659646E-02 -1.19479672E-06 -3.89597496E-01
  3.97821047E-03 -7.50798691E-01 -4.30409717E-06 -1.49886027E+00 -4.27817694E-01
  6.02347337E-03 -4.77701570E-03  6.31511121E-03 -6.04237791E-08  2.15215446E-08
  5.29442662E-03 -6.50982307E-02  1.05378862E-01  8.48545603E-07  1.72316310E-01
  4.19084634E-02  1.37185220E+00  3.83146892E-06  9.75513228E-01 -1.61494843E-01
 -7.14353791E-03  3.26063950E-03  3.33880655E-04  1.65092362E-07  8.25028671E-08
  2.37449018E-02  2.98941083E-02 -1.27964163E+00 -3.74741594E-03 -1.37736398E+00
  2.08015349E-02  1.60538318E+00  7.69554417E-02 -5.11538958E-02  1.37899164E-06
  7.20149132E-02 -1.95056866E-01 -2.53414076E+00  3.73567813E-06  2.76728268E-01
 -2.59766273E+00  7.88468471E-03 -2.74482648E-02  2.75899013E-02 -5.99349254E-08
 -8.18195857E-08 -1.57580788E-02 -8.64625713E-02  1.10486456E-01 -8.45783731E-07
 -1.84598443E-01 -2.17404174E-01  2.76084453E+00 -2.71900957E-06 -3.12727395E-01
 -2.38656205E+00 -2.80926923E-03  1.76145040E-02 -1.85170832E-02  1.05318603E-07
 -1.05939052E-07  7.08611782E-04  7.20112023E-02  6.68934762E-01 -8.96451533E-02
 -2.31898495E-01 -5.20426170E-02 -7.61479598E-01  1.68191198E-02  1.87335345E-01
  3.02762367E-07  3.37863583E-03  5.55502279E-01  3.47786440E-01  1.04771011E-06
 -7.58659719E-02 -1.00568405E+00 -5.31678121E-03 -3.85095453E-02  8.15233137E-02
 -9.88311778E-08  5.99050945E-08  6.93849380E-03  2.89431995E-02  1.45036204E-01
  8.09194283E-07  5.69340731E-02 -5.86783986E-01  1.53220613E-01 -8.06338340E-07
  5.15640588E-02  1.03986609E+00 -9.72884124E-03 -3.63349059E-02  7.98465757E-02
 -1.19643376E-07 -7.53041973E-08 -2.20203502E-03 -8.11112577E-02 -8.61354008E-02
 -5.71917103E-02 -2.17241891E-01 -7.78214228E-02 -7.24187064E-02  1.35188546E-07
 -2.47794923E-06  6.89575428E-01 -1.65627599E-06  4.47638706E-07  7.40247134E-07
 -5.71440143E-01  1.62683695E-06  1.89278341E-06 -1.75892803E-07  2.61377317E-08
 -4.19625923E-07 -8.53808157E-05  5.20187833E-02 -1.00799599E-07  6.69702590E-08
 -2.30828240E-06  7.69715696E-01 -1.24926223E-06  1.66931384E-07  7.72004632E-07
 -7.33497938E-01  7.37914108E-07 -2.53190113E-07 -1.40334102E-07 -4.12581386E-08
 -2.71036832E-07 -3.23463665E-03 -5.17097995E-02  1.13698141E-07 -1.41505862E-07
  7.89841847E-07  2.74760587E-07  1.68218903E-06  3.07265664E-07  1.48585120E-06
 -5.93337480E-03  1.07351770E-01 -8.56295063E-07 -1.97170779E-01  1.60359532E-01
  1.03321883E-01  5.39913025E-07  3.60170914E-01  1.04364908E-01  6.38853096E-03
  1.26307014E-02 -7.65266818E-03 -5.18462217E-07  1.49063542E-07  2.94846141E-02
 -1.68092432E-02  3.22702641E-01 -4.02286176E-07 -8.18209329E-01  2.39155887E-01
 -3.33663836E-01  2.04951476E-06  1.09292325E+00  1.88660033E-01  2.88528833E-02
 -2.35459171E-02  6.27458457E-02 -3.97570119E-07 -1.27753065E-07 -3.46391994E-02
 -2.80206137E-01 -2.31094320E-01  2.64766502E-01  1.52058717E-01 -1.90395822E-01
 -5.89310740E-02  3.53155663E-03 -4.43283453E-01  1.03812800E-06 -3.42173298E-01
 -3.00191203E-01  3.74018262E-01  8.27248657E-07  8.61606393E-01 -1.70347628E-01
  9.64318971E-03 -7.84499447E-02 -4.70013422E-03 -9.59213139E-07  3.99847708E-07
  1.01574749E-01 -3.30592998E-02 -6.22906209E-01 -2.33172334E-06  2.49571063E-01
 -2.59451097E-01  1.13789850E+00  3.32192378E-06 -2.89994017E-01  2.23137593E-02
  2.57936091E-02 -7.91157254E-02 -1.22555635E-01 -6.54715589E-07 -5.00349923E-07
 -8.51102870E-02 -5.24260340E-01  1.67832245E-01  1.05228945E-01 -3.39178152E-02
 -4.83976242E-01 -1.65718791E-01  2.34300590E-07  8.05119975E-07 -8.22893921E-01
  9.96514191E-07 -4.87250309E-06 -1.80159998E-06  1.17099679E+00 -7.01328331E-08
  1.92390930E-06 -1.70547932E-07 -4.27960815E-08  9.79851218E-07 -3.97314300E-04
  9.78857170E-03  2.02983252E-07 -2.86156344E-07 -7.54134262E-07  7.23436787E-01
 -9.46696744E-07 -4.26954695E-06  2.42433097E-06 -1.09753833E+00  8.23304449E-07
  1.39283930E-06  1.87859542E-07  1.12378075E-07 -9.95378602E-07 -3.68827368E-03
  2.18014121E-02 -2.52589529E-07 -1.08496417E-06  1.49630989E-06  1.50475837E-06
 -1.20328219E-06  1.74273468E-07 -2.05281587E-06  8.89652074E-02  3.21549685E-01
  3.35235700E-06 -8.09025914E-02 -5.30124996E-01 -8.47794896E-01 -1.02474267E-05
  2.34032507E-01  9.43175881E-01 -9.94572768E-02  1.16072625E-01  1.63523861E-01
  3.66818809E-07 -5.72252559E-07  2.27822383E-02 -4.27818180E-02  4.04707177E-01
 -2.22599929E-06  2.89236995E-02 -5.66552305E-01 -6.36358101E-01  6.38799781E-06
 -9.47554554E-02  5.27671027E-01  2.92592494E-02  5.61708835E-02 -8.64858823E-02
  3.20836618E-08  3.00693893E-07 -2.01214184E-02 -7.07424896E-02  5.45301129E-02
  5.91507635E-01  2.09617769E-01  4.60860732E-01  1.19038518E-01 -3.19201244E-03
  4.85538217E-01 -2.42398298E-06 -8.46944279E-01  3.09999013E-01 -1.23720150E+00
  7.53423973E-06  2.74793204E+00 -6.99886792E-01 -3.73432717E-03  8.10492332E-02
 -2.09760727E-02 -8.03706584E-07 -1.42021016E-07  2.77711421E-02  2.98089484E-02
  3.80700726E-01  2.29602173E-06  4.70108366E-01  4.11574439E-01 -5.67017259E-01
 -8.05419273E-06 -1.99574319E+00 -1.16259110E+00 -5.89885004E-02  6.17668769E-02
  1.11565743E-01  1.99856601E-07  1.68852154E-07 -9.94274584E-03  6.69862374E-02
  1.41293753E+00  8.73623334E-02  1.25397560E+00  9.67558093E-02 -1.45889177E+00
  4.67536451E-03  3.20983106E-01  1.06563476E-06  6.83782604E-01  1.77558916E-01
 -8.95758756E-01 -1.67133445E-06 -1.12356459E+00 -5.11394266E-01 -4.36351845E-03
  4.91097917E-02 -2.89313946E-03 -5.26483618E-07  3.53252130E-07  1.65971059E-01
 -3.40643453E-03  4.74849200E-01  2.16004921E-06  3.88616885E-01  3.75841853E-01
 -6.24750867E-01 -4.16335357E-06 -7.07760956E-01 -8.91760877E-01  1.93103143E-02
 -1.96695792E-02  9.07102034E-02 -5.12539281E-08 -3.78774419E-07 -1.40928129E-01
 -4.46980827E-01  1.40880226E+00  5.31542582E-01 -1.20912058E+00 -3.95904132E-01
  1.06146241E+00  3.01222772E-02 -1.00801103E+00 -3.78673473E-06  1.60990810E-02
  6.31669869E-01  1.50778312E+00  6.47535103E-06 -1.41348508E-01 -1.33421798E+00
 -1.11161190E-01  1.01978802E-01 -1.41758286E-01  7.02064635E-07 -9.59235439E-07
 -2.58624128E-03 -8.34191653E-03 -5.52216497E-01  1.51805573E-07 -6.81223505E-03
  1.43484297E-01  1.40837499E+00 -1.15830093E-07  1.28643603E-01 -5.58697676E-01
  5.48176067E-03 -5.27503490E-02 -1.81836350E-02 -1.91906372E-07  6.54415911E-07
 -5.26470260E-04 -5.35057824E-02 -7.48705066E-02  6.16063906E-01 -1.42186433E+00
  6.64433697E-01 -1.31711724E+00 -3.99850428E-03  3.17819761E-01  7.17871188E-07
  1.74027530E-01  9.16443136E-02 -1.04714020E+00  6.38530500E-07  5.32763462E-01
 -3.20331136E-01  7.73165852E-03  5.44794437E-02 -1.74796151E-02 -2.12830546E-06
 -1.23292821E-07  1.28250244E-01  3.71542479E-02 -6.75956858E-01 -1.29721038E-06
 -2.90439752E-01 -1.16709465E-01  1.49808506E+00  6.94852248E-08 -1.91168887E-01
 -2.49038993E-01 -1.59889946E-01  1.30556439E-01 -3.05107783E-02  1.35736780E-06
  5.24580652E-07  6.82549007E-04  9.10328389E-01 -9.66430230E-01  5.55602632E-01
 -1.42035746E-01 -5.25341110E-01  3.38103519E-01 -3.66739397E-02 -1.48566445E+00
 -6.79081223E-07 -4.38435455E-02 -1.54819508E-01  5.37552668E+00  5.97849106E-06
  7.75082803E-01  1.75114675E+00 -2.41239653E-02 -1.62152961E-01 -5.52471574E-03
 -1.87217816E-06  3.72387647E-07  5.34471380E-02  4.15358699E-02  1.39767263E+00
  2.36496751E-07  6.92256490E-02 -2.11674119E-01 -5.15323163E+00 -4.68573361E-06
 -8.59688105E-01  1.87367230E+00 -1.71241009E-02  2.08879123E-01 -1.08590740E-02
  1.06468055E-06 -1.00294700E-07  8.59839249E-03  3.42986812E-01  5.65201442E-01
  9.11564724E-02 -2.14304922E-01 -2.99405283E-01 -6.13359044E-01 -1.07261670E-07
 -2.44143360E-07  1.61712008E-01 -3.52701299E-07 -4.35835325E-07  2.11538816E-06
 -2.99613362E-02  4.04595365E-07  1.47547616E-06  2.92883005E-06 -3.43094120E-06
  2.63022698E-07 -2.35760309E-03 -6.18202091E-01  1.26828947E-06  1.69686880E-08
  8.96889003E-07  1.53288277E-01 -1.33881437E-07  2.45765531E-07 -3.44677967E-06
 -2.49576287E-02 -6.13180141E-07  7.74904123E-07  1.67553256E-06 -1.93090909E-06
  1.83276195E-07  3.75747169E-03  6.28508306E-01 -1.28296907E-06 -2.56727501E-07
  1.05690290E-06 -1.17518125E-06  9.56714875E-07 -1.26983193E-06  7.10188359E-07
 -6.63247678E-08 -7.95716413E-07 -1.11714756E-03 -2.74824838E-06  1.06881521E-07
  3.62087873E-06  2.75400730E-03 -2.41286465E-07  5.68326538E-07  2.20086557E-06
 -2.01423980E-06 -1.40280582E-07  6.64420561E-01  2.15050854E-03  6.33740274E-06
  1.13026070E-07 -2.67813555E-07  2.35534141E-03 -2.04085489E-06 -4.49359734E-07
 -1.05433466E-06 -6.85279162E-03  1.68802593E-06  1.86518072E-06  4.48142298E-07
  4.39210968E-08 -2.38081467E-07  7.01248558E-01  5.79063396E-04 -7.38044631E-06
  1.75872644E-06 -2.27677437E-06 -3.07555838E-06  1.59270514E-06  2.06025026E-06
 -2.22685109E-06  1.11488844E-02  8.72012079E-02 -2.54605946E-07  8.18690361E-02
  1.47358624E-02 -2.83598232E-01  1.39985834E-06  1.11514168E+00  1.38425852E-01
  2.36009955E-01 -2.43464041E-01  9.01642254E-03 -2.01727987E-05  1.00140497E-06
 -2.54290875E-01  6.83421177E-03  1.72912506E-01  1.70408156E-07  1.41568919E-01
  3.38954422E-02 -5.02270749E-01 -2.44412726E-06 -8.19256467E-01 -1.93358265E-01
  5.28330723E-01 -5.44335434E-01  2.82226123E-03  2.85990728E-05 -5.94099183E-07
  6.23176986E-01  1.23983507E-01  4.43866347E-01  5.77836446E-01  3.71686549E-01
 -2.75395348E-01 -2.57303521E-01  5.52004581E-07  3.59065415E-06  3.23366190E-04
  1.26752942E-06  1.46795146E-06 -9.80308406E-06 -2.77762070E-03  4.87917787E-05
  7.65439555E-06  1.64485908E-05 -1.54987755E-05 -3.34536444E-07  7.50798959E-01
 -3.50814538E-03 -1.91298988E-06  6.14478197E-07  8.97108291E-06 -1.27700745E-03
  3.87946703E-06  6.89538079E-07 -2.84390736E-05  5.41905231E-03 -3.80694576E-05
 -7.17587561E-06  1.82578468E-05 -1.73247001E-05 -9.68638673E-07 -7.16492072E-01
  1.82787169E-03  2.09232510E-05  1.09615060E-05  1.93295967E-05  2.34195085E-05
  1.72409973E-05 -8.03252027E-06 -1.26570413E-05  2.57304186E-02  1.99825617E-01
 -8.33880491E-07 -1.41730870E-01  1.10847020E-01 -4.31860423E-01 -2.67284212E-06
 -1.84533967E-01  1.74082309E-01  6.12526994E-01 -3.84547966E-01 -1.49130354E-01
 -1.25042603E-05  2.29132999E-06  3.83527361E-01  2.95697825E-02  1.60376597E-01
 -6.75433656E-07 -1.10229627E-01 -1.04050917E-01 -5.06113781E-01 -2.36104798E-07
 -1.87253497E-01  1.31352156E-02  5.39112735E-01 -2.85901056E-01 -1.62715901E-01
 -5.18825961E-07 -3.59996851E-06 -4.87905032E-01  5.31964127E-01  5.78452678E-02
 -3.94660114E-02  1.31060886E-01  5.63623094E-01  8.54473587E-02 -1.93527433E-02