opted geometry                                                          
SP        UB3LYP                                                      6-31G(d)            
Number of atoms                            I                5
Info1-9                                    I   N=           9
          14          14           0           0           0         111
           1          18        -502
Full Title                                 C   N=           2
opted geometry          
Route                                      C   N=           4
#p b3lyp/6-31G* em=gd3bj ExtraLinks=L608 nosymm 
Charge                                     I                0
Multiplicity                               I                2
Number of electrons                        I               15
Number of alpha electrons                  I                8
Number of beta electrons                   I                7
Number of basis functions                  I               36
Number of independent functions            I               36
Number of point charges in /Mol/           I                0
Number of translation vectors              I                0
Atomic numbers                             I   N=           5
           6           6           1           1           1
Nuclear charges                            R   N=           5
  6.00000000E+00  6.00000000E+00  1.00000000E+00  1.00000000E+00  1.00000000E+00
Current cartesian coordinates              R   N=          15
  4.23298652E-06 -4.98306228E-01  1.69504488E+00 -1.34170555E-05 -2.95475355E+00
  9.49651704E-01 -3.29946181E-05 -3.51884373E+00 -1.03901149E+00 -1.80468845E-05
 -4.49558143E+00  2.32278236E+00  1.82925489E-05 -8.96595678E-02  3.72643670E+00
Number of symbols in /Mol/                 I                0
Force Field                                I                0
Atom Types                                 C   N=           5
                                                            
Int Atom Types                             I   N=           5
           0           0           0           0           0
MM charges                                 R   N=           5
  0.00000000E+00  0.00000000E+00  0.00000000E+00  0.00000000E+00  0.00000000E+00
Integer atomic weights                     I   N=           5
          12          12           1           1           1
Real atomic weights                        R   N=           5
  1.20000000E+01  1.20000000E+01  1.00782504E+00  1.00782504E+00  1.00782504E+00
Atom fragment info                         I   N=           5
           0           0           0           0           0
Atom residue num                           I   N=           5
           0           0           0           0           0
Nuclear spins                              I   N=           5
           0           0           1           1           1
Nuclear ZEff                               R   N=           5
 -3.60000000E+00 -3.60000000E+00 -1.00000000E+00 -1.00000000E+00 -1.00000000E+00
Nuclear ZNuc                               R   N=           5
  6.00000000E+00  6.00000000E+00  1.00000000E+00  1.00000000E+00  1.00000000E+00
Nuclear QMom                               R   N=           5
  0.00000000E+00  0.00000000E+00  0.00000000E+00  0.00000000E+00  0.00000000E+00
Nuclear GFac                               R   N=           5
  0.00000000E+00  0.00000000E+00  2.79284600E+00  2.79284600E+00  2.79284600E+00
MicOpt                                     I   N=           5
          -1          -1          -1          -1          -1
Number of residues                         I                0
Number of secondary structures             I                0
Number of contracted shells                I               14
Number of primitive shells                 I               34
Pure/Cartesian d shells                    I                1
Pure/Cartesian f shells                    I                0
Highest angular momentum                   I                2
Largest degree of contraction              I                6
Shell types                                I   N=          14
           0          -1          -1           2           0          -1
          -1           2           0           0           0           0
           0           0
Number of primitives per shell             I   N=          14
           6           3           1           1           6           3
           1           1           3           1           3           1
           3           1
Shell to atom map                          I   N=          14
           1           1           1           1           2           2
           2           2           3           3           4           4
           5           5
Primitive exponents                        R   N=          34
  3.04752488E+03  4.57369518E+02  1.03948685E+02  2.92101553E+01  9.28666296E+00
  3.16392696E+00  7.86827235E+00  1.88128854E+00  5.44249258E-01  1.68714478E-01
  8.00000000E-01  3.04752488E+03  4.57369518E+02  1.03948685E+02  2.92101553E+01
  9.28666296E+00  3.16392696E+00  7.86827235E+00  1.88128854E+00  5.44249258E-01
  1.68714478E-01  8.00000000E-01  1.87311370E+01  2.82539436E+00  6.40121692E-01
  1.61277759E-01  1.87311370E+01  2.82539436E+00  6.40121692E-01  1.61277759E-01
  1.87311370E+01  2.82539436E+00  6.40121692E-01  1.61277759E-01
Contraction coefficients                   R   N=          34
  1.83473713E-03  1.40373228E-02  6.88426223E-02  2.32184443E-01  4.67941348E-01
  3.62311985E-01 -1.19332420E-01 -1.60854152E-01  1.14345644E+00  1.00000000E+00
  1.00000000E+00  1.83473713E-03  1.40373228E-02  6.88426223E-02  2.32184443E-01
  4.67941348E-01  3.62311985E-01 -1.19332420E-01 -1.60854152E-01  1.14345644E+00
  1.00000000E+00  1.00000000E+00  3.34946043E-02  2.34726953E-01  8.13757326E-01
  1.00000000E+00  3.34946043E-02  2.34726953E-01  8.13757326E-01  1.00000000E+00
  3.34946043E-02  2.34726953E-01  8.13757326E-01  1.00000000E+00
P(S=P) Contraction coefficients            R   N=          34
  0.00000000E+00  0.00000000E+00  0.00000000E+00  0.00000000E+00  0.00000000E+00
  0.00000000E+00  6.89990666E-02  3.16423961E-01  7.44308291E-01  1.00000000E+00
  0.00000000E+00  0.00000000E+00  0.00000000E+00  0.00000000E+00  0.00000000E+00
  0.00000000E+00  0.00000000E+00  6.89990666E-02  3.16423961E-01  7.44308291E-01
  1.00000000E+00  0.00000000E+00  0.00000000E+00  0.00000000E+00  0.00000000E+00
  0.00000000E+00  0.00000000E+00  0.00000000E+00  0.00000000E+00  0.00000000E+00
  0.00000000E+00  0.00000000E+00  0.00000000E+00  0.00000000E+00
Coordinates of each shell                  R   N=          42
  4.23298652E-06 -4.98306228E-01  1.69504488E+00  4.23298652E-06 -4.98306228E-01
  1.69504488E+00  4.23298652E-06 -4.98306228E-01  1.69504488E+00  4.23298652E-06
 -4.98306228E-01  1.69504488E+00 -1.34170555E-05 -2.95475355E+00  9.49651704E-01
 -1.34170555E-05 -2.95475355E+00  9.49651704E-01 -1.34170555E-05 -2.95475355E+00
  9.49651704E-01 -1.34170555E-05 -2.95475355E+00  9.49651704E-01 -3.29946181E-05
 -3.51884373E+00 -1.03901149E+00 -3.29946181E-05 -3.51884373E+00 -1.03901149E+00
 -1.80468845E-05 -4.49558143E+00  2.32278236E+00 -1.80468845E-05 -4.49558143E+00
  2.32278236E+00  1.82925489E-05 -8.96595678E-02  3.72643670E+00  1.82925489E-05
 -8.96595678E-02  3.72643670E+00
Num ILSW                                   I              100
ILSW                                       I   N=         100
           1           1           0           0           2           0
           0           0           0           0         402          -1
           5           0           0           0           0           0
           0           0           0           0           0           0
           1           1           0           0           0           0
           0           0      100000           0          -1           0
           0           0           0           0           0           0
           0           0           0           1           0           0
           0 -2000000000           1           0           0           0
           0           0         141          52           0           0
           0           0           5           0           0           0
           0           0           0           5           0           1
           0           0           0           0           0           0
           0           0           0           0           0           0
           0           0           0           0           0           0
           0           0           0           0           0           0
           0           0           0           0
Num RLSW                                   I               52
RLSW                                       R   N=          52
  8.00000000E-01  7.20000000E-01  1.00000000E+00  8.10000000E-01  2.00000000E-01
  0.00000000E+00  0.00000000E+00  1.00000000E+00  0.00000000E+00  0.00000000E+00
  0.00000000E+00  0.00000000E+00  1.00000000E+00  0.00000000E+00  0.00000000E+00
  0.00000000E+00  0.00000000E+00  1.00000000E+00  0.00000000E+00  0.00000000E+00
  0.00000000E+00  0.00000000E+00  1.00000000E+00  0.00000000E+00  0.00000000E+00
  0.00000000E+00  0.00000000E+00  1.00000000E+00  0.00000000E+00  0.00000000E+00
  0.00000000E+00  0.00000000E+00  1.00000000E+00  0.00000000E+00  0.00000000E+00
  0.00000000E+00  0.00000000E+00  0.00000000E+00  1.00000000E+00  1.00000000E+00
  0.00000000E+00  1.00000000E+00  0.00000000E+00  0.00000000E+00  0.00000000E+00
  0.00000000E+00  0.00000000E+00  0.00000000E+00  0.00000000E+00  0.00000000E+00
  0.00000000E+00  0.00000000E+00
MxBond                                     I                3
NBond                                      I   N=           5
           2           3           1           1           1
IBond                                      I   N=          15
           2           5           0           1           3           4
           2           0           0           2           0           0
           1           0           0
RBond                                      R   N=          15
  2.00000000E+00  1.00000000E+00  0.00000000E+00  2.00000000E+00  1.00000000E+00
  1.00000000E+00  1.00000000E+00  0.00000000E+00  0.00000000E+00  1.00000000E+00
  0.00000000E+00  0.00000000E+00  1.00000000E+00  0.00000000E+00  0.00000000E+00
Virial Ratio                               R      2.011509164216538E+00
SCF Energy                                 R     -7.789627483644196E+01
Total Energy                               R     -7.789627483644196E+01
S**2                                       R      7.659178936608599E-01
S**2 after annihilation                    R      7.500531694217779E-01
RMS Density                                R      4.784959882995163E-09
Job Status                                 I                1
Nuclear derivative order                   I                0
External E-field                           R   N=          35
  0.00000000E+00  0.00000000E+00  0.00000000E+00  0.00000000E+00  0.00000000E+00
  0.00000000E+00  0.00000000E+00  0.00000000E+00  0.00000000E+00  0.00000000E+00
  0.00000000E+00  0.00000000E+00  0.00000000E+00  0.00000000E+00  0.00000000E+00
  0.00000000E+00  0.00000000E+00  0.00000000E+00  0.00000000E+00  0.00000000E+00
  0.00000000E+00  0.00000000E+00  0.00000000E+00  0.00000000E+00  0.00000000E+00
  0.00000000E+00  0.00000000E+00  0.00000000E+00  0.00000000E+00  0.00000000E+00
  0.00000000E+00  0.00000000E+00  0.00000000E+00  0.00000000E+00  0.00000000E+00
IOpCl                                      I                1
IROHF                                      I                0
Alpha Orbital Energies                     R   N=          36
 -1.02229535E+01 -1.01963847E+01 -7.56192139E-01 -5.72282636E-01 -4.56465197E-01
 -4.06354179E-01 -2.72956155E-01 -2.66505921E-01  5.25506035E-03  1.15488370E-01
  1.40546800E-01  2.05039390E-01  3.18278545E-01  4.88716312E-01  5.44048869E-01
  5.58427116E-01  6.03875631E-01  6.27893694E-01  6.59344571E-01  8.23897545E-01
  8.50833191E-01  9.21092730E-01  9.43652411E-01  1.09407965E+00  1.44423300E+00
  1.54344456E+00  1.73850927E+00  1.81322284E+00  1.90700350E+00  2.05102591E+00
  2.20034357E+00  2.34787069E+00  2.55578083E+00  2.66874764E+00  4.02056459E+00
  4.20721971E+00
Beta Orbital Energies                      R   N=          36
 -1.02067172E+01 -1.01979320E+01 -7.40109390E-01 -5.52392893E-01 -4.40532728E-01
 -3.92982046E-01 -2.63825906E-01 -9.27748183E-02  2.01169840E-02  1.23713148E-01
  1.45559757E-01  2.13553211E-01  3.36093024E-01  5.00396135E-01  5.48459048E-01
  5.94308296E-01  6.36009332E-01  6.41794781E-01  6.70372460E-01  8.32537123E-01
  8.66020460E-01  9.26115640E-01  9.63852937E-01  1.10624791E+00  1.45819810E+00
  1.56723227E+00  1.80075471E+00  1.84405465E+00  1.91832802E+00  2.07614885E+00
  2.21602812E+00  2.36481087E+00  2.58194394E+00  2.69244626E+00  4.04701156E+00
  4.21969423E+00
Alpha MO coefficients                      R   N=        1296
  9.92481452E-01  4.96971634E-02  1.69423950E-09 -1.44779798E-04  2.08331875E-04
 -1.17492509E-02  4.65009597E-09  2.13017653E-03 -1.07158693E-03 -1.01332672E-02
 -9.66290121E-03 -9.80814558E-03  2.60637542E-09  1.57708869E-09 -9.23120093E-05
  1.36502649E-02  1.56812601E-04 -2.98790623E-09 -3.48076328E-04 -1.64566264E-04
  4.55930301E-03  1.89698519E-08  1.85928931E-03  1.45127272E-03 -2.94541582E-04
 -3.92237539E-04 -3.22213225E-04 -5.48735369E-10 -4.80678776E-10 -7.60864668E-06
 -4.31774359E-05  5.04131151E-04 -1.70774467E-04 -2.32270922E-04 -2.32792966E-04
  2.55964831E-03 -1.40881826E-02 -1.18774233E-03  2.79808531E-09  4.09648385E-04
  1.29727080E-04  4.40228668E-03 -1.39610088E-08 -1.80394677E-03 -4.48539059E-04
  1.75947583E-05 -2.17209960E-04 -7.09035515E-05 -1.25930635E-09 -7.00041391E-10
 -4.30814587E-05  9.92686760E-01  4.87434706E-02 -2.49077218E-09 -1.42311880E-05
  2.47206292E-05 -1.27856051E-02  5.40560398E-10 -7.59162280E-04 -3.49129739E-04
 -9.69200231E-03 -9.04881090E-03 -9.27492718E-03  5.53571647E-09  3.74368949E-09
  9.69825128E-05 -3.59144342E-04  2.13883994E-03 -3.32485709E-04  2.23608264E-03
 -8.30930739E-05 -5.63196245E-05 -1.55611449E-01  3.13090733E-01 -6.97386285E-07
 -1.23914670E-01 -2.56193582E-03  2.41706001E-01 -5.14037496E-08 -1.63901473E-02
  5.77468839E-03 -1.70940661E-02  5.29666868E-03 -5.20004319E-04  1.57216151E-07
  1.21788136E-07  2.30032132E-03 -1.63260752E-01  3.18417902E-01  5.18306469E-07
  9.07740329E-02  3.82341535E-02  2.32575161E-01 -4.26746616E-08 -1.86664270E-03
  7.00257688E-03 -1.85368616E-02  7.54042745E-03  2.04253999E-03  2.13302391E-07
  1.67228112E-07  3.58702666E-03  8.53329982E-02  2.03735251E-02  9.38338280E-02
  1.92209208E-02  9.34590876E-02  2.06120632E-02 -1.28868391E-01  2.69167586E-01
  1.36205685E-06  8.44822799E-02  1.34439039E-01  2.65769408E-01  4.24904126E-07
  3.44629730E-02  3.77451175E-02 -1.22125547E-02 -1.19551448E-02  1.08199657E-02
 -2.50791778E-08  1.35169014E-07 -2.78573187E-03  1.14169844E-01 -2.30626771E-01
  2.05207415E-06  1.91274266E-01  8.90024665E-02 -2.35050704E-01  7.29028802E-07
  6.58654415E-02  3.36349590E-02  1.16327261E-02  5.51934996E-03 -1.24766842E-02
 -4.18863214E-08 -1.43221534E-07  9.02859913E-03 -1.64132563E-01 -7.61777113E-02
 -1.45707882E-01 -7.26072788E-02  1.86540301E-01  9.48260940E-02 -3.46317571E-02
  7.95185675E-02 -1.97460535E-06 -7.58741006E-02 -2.84930923E-01  7.07153779E-02
 -4.73740822E-07  8.73989378E-03 -9.58178850E-02 -1.25298372E-03 -9.00905764E-04
 -9.65768750E-03  3.27210364E-08 -2.13922889E-08  7.15971339E-03 -8.14451963E-04
  1.88143852E-03  2.64700692E-07  2.92256943E-01 -2.71777596E-01  1.60183439E-02
  9.44339589E-08  1.08647823E-01 -1.00521517E-01  3.74772745E-04 -2.82227248E-03
 -4.36226605E-03  1.28066562E-08  1.27959107E-07  1.42596529E-02  1.03615461E-01
  7.52648241E-02 -2.44773392E-01 -1.89135593E-01 -1.36509073E-01 -1.14885693E-01
 -1.25534935E-02  2.31212059E-02  2.51758992E-06  3.35293946E-01  1.55585633E-01
  8.37270829E-02  7.57954827E-07  1.19443719E-01  3.39362601E-02 -8.23600885E-04
 -1.53424948E-02  1.99515006E-02 -2.94143970E-08  1.84650971E-07  6.43310920E-03
  1.87990695E-02 -4.13857822E-02 -3.74973353E-06 -2.31232192E-01 -3.31232890E-01
 -3.65347569E-02 -1.43897168E-06 -8.71921743E-02 -1.24749839E-01  1.32069899E-03
 -8.47572429E-03  1.93231598E-02  1.29722432E-09  2.48674280E-07  7.97534733E-03
  2.32745224E-01  2.03206161E-01 -5.26845414E-02 -4.25572093E-02  1.72393302E-01
  1.59327282E-01  1.53411025E-07 -3.59765105E-07  4.35318907E-01 -2.50093615E-06
 -1.92313324E-06 -2.76260906E-07  2.92674663E-01 -1.96048814E-06 -1.45071585E-06
 -1.67110220E-07  1.50682067E-07  5.52432723E-08 -1.59500252E-02 -2.74376146E-03
  1.31929804E-07 -2.16684148E-07  4.77471380E-07  3.79261288E-01 -2.51472821E-06
 -2.63334482E-06  5.01393774E-07  2.70854039E-01 -2.02210752E-06 -1.83157348E-06
  1.57918197E-07 -1.70472736E-07 -2.36764971E-08  1.54491237E-02  5.60628340E-03
 -9.29723684E-08  1.42762375E-07  2.47211280E-07 -2.64413636E-07 -3.17581625E-07
  2.81740576E-07  3.99350832E-07 -7.27142674E-02  1.51510612E-01  5.24172587E-07
  3.81522285E-01 -3.66793077E-01  3.50123793E-01  6.52653667E-07  2.88151097E-01
 -2.26078332E-01 -9.71142127E-04 -4.39743556E-03 -1.58271507E-02 -9.18949505E-08
 -1.72103064E-07 -1.08132902E-02  2.26957499E-02 -5.64636236E-02  1.32530241E-07
 -1.46673892E-01  9.38165380E-02 -1.15274392E-02  3.37070207E-07 -3.46279228E-02
  3.91664978E-02  1.25078492E-03  1.73568006E-02 -1.21404089E-02  4.22633129E-09
 -2.69244391E-07 -2.44833125E-02 -1.08152796E-01 -1.29016159E-01  1.52923703E-01
  2.07133192E-01 -1.43274608E-01 -1.74982959E-01  5.03708746E-08 -2.12505232E-07
 -4.28835978E-01  2.63407522E-06  2.54535464E-06  5.16030786E-07 -5.74678004E-01
  3.03732853E-06  3.25257295E-06 -3.21190122E-07  2.29900569E-07  8.79580698E-08
 -2.31170808E-02 -9.36462524E-03  2.06061204E-07 -3.45109334E-07  6.21463255E-07
  4.36034819E-01 -3.11684985E-06 -2.84057109E-06  2.45811362E-06  6.22035947E-01
 -4.87329850E-06 -4.20846915E-06 -3.41144963E-07  2.09586147E-07  4.40977435E-08
 -2.33274117E-02 -6.34424450E-03  1.65521264E-07 -5.34250891E-07 -1.48999890E-06
 -4.76413578E-07 -1.32628700E-06  3.82738561E-08  1.81713784E-07  5.90927500E-02
 -9.96678739E-02 -2.07218639E-06 -8.33201722E-02 -2.36320955E-01 -1.00702147E+00
 -5.33418792E-06 -1.51377608E-01 -6.03767604E-01  1.51798163E-03 -8.93893228E-03
  1.55634041E-02 -7.33248847E-08  9.15407899E-08  4.96345898E-03  7.56873682E-02
 -1.21552649E-01  1.27943428E-06  2.04009352E-01 -1.07417634E-01 -1.14385266E+00
  5.24063364E-06  6.14972535E-01 -1.11218455E-01  4.07590996E-03  4.54247552E-03
  2.63753592E-03 -1.35161885E-07 -1.21490827E-07 -1.60726779E-02 -9.96405886E-04
  4.21986338E-01  7.92684873E-02  1.33472162E+00  7.87190499E-02  1.32223226E+00
  6.56574559E-02 -8.90513699E-02 -5.00448976E-07  2.36673724E-02 -1.66116003E-01
 -9.47611299E-01  5.56510743E-07  1.43751557E-01 -2.60972663E-01  7.45425195E-03
  1.67685134E-03  7.94108203E-03  1.36517700E-07  1.02324946E-07  1.83178736E-02
 -1.14680797E-01  1.71089069E-01 -2.85032571E-06 -8.85239164E-02 -2.11151948E-01
  1.76789480E+00 -7.25923977E-06 -1.55188445E-01 -5.35867406E-01 -8.64312435E-03
  4.28582968E-04 -1.18598224E-02  3.04578225E-08 -8.87008156E-08 -1.22555270E-02
 -1.00908001E-01 -1.66873066E+00 -1.47015337E-02 -4.71623978E-01  8.32638356E-02
  9.60069641E-01 -6.50982079E-02  1.05380636E-01  9.60186262E-07 -9.93390336E-03
  1.77057030E-01  1.37183331E+00  2.77394144E-06 -4.37785536E-01  8.86587075E-01
 -7.14335313E-03 -1.08470745E-02  1.44414995E-02  9.65494781E-08  1.92788795E-07
  1.88018611E-02  3.19771005E-02 -1.28675857E-02 -1.42467147E-06  1.16934918E-01
 -3.71656184E-01 -7.50791258E-01 -8.92544770E-06  2.58561464E-02 -1.55850725E+00
  6.02327590E-03  2.83214782E-03 -1.29381868E-03  2.87284376E-08 -1.03027068E-09
  7.96066775E-03 -3.74793898E-03 -1.37736688E+00  2.08010387E-02  1.60538660E+00
  2.98951297E-02 -1.27962939E+00 -8.64622885E-02  1.10485753E-01 -2.28086851E-06
 -1.54436085E-01 -2.39771311E-01  2.76085589E+00 -1.70779370E-05 -2.19294217E+00
 -9.92246975E-01 -2.80913840E-03 -1.58114526E-02  1.49088074E-02 -9.50243404E-08
  8.16574891E-08 -1.10032601E-02  7.69555250E-02 -5.11533703E-02 -1.64434518E-06
 -2.07561550E-01  1.22759712E-02 -2.53416267E+00 -1.80548735E-05 -2.56610996E+00
 -4.89471074E-01  7.88487901E-03  3.05331474E-02 -3.03918741E-02  1.75249166E-07
 -2.44767531E-07  4.55796963E-03 -8.96499253E-02 -2.31872632E-01 -5.20406693E-02
 -7.61499320E-01  7.20076978E-02  6.68951511E-01  2.89440103E-02  1.45038578E-01
 -4.11849835E-06 -5.78035591E-01 -1.15889470E-01  1.53202901E-01  7.95749051E-06
  9.80107243E-01  3.51281609E-01 -9.72920964E-03  7.11109445E-02 -2.75979686E-02
  7.41718598E-07  7.99106566E-08  3.54454431E-02  1.68186485E-02  1.87336383E-01
  3.74005800E-06  5.30585790E-01  1.64546875E-01  3.47800004E-01 -7.92146183E-06
 -9.40306474E-01 -3.64627720E-01 -5.31678608E-03  6.80630284E-02 -2.50496781E-02
  7.03488376E-07  9.84583941E-08  4.42796306E-02 -5.71996525E-02 -2.17227734E-01
 -7.78139545E-02 -7.24225984E-02 -8.11012570E-02 -8.61503326E-02 -3.99855274E-08
  1.19461459E-06  7.69714923E-01 -3.75499608E-06 -6.05554163E-06 -4.71678774E-07
 -7.33496961E-01  3.56799371E-06  6.19941582E-06 -5.68163549E-07  5.75950909E-07
  2.05960537E-07 -4.85427986E-02 -1.81102764E-02  4.18904936E-07 -6.40046417E-08
  1.20043090E-06  6.89575826E-01 -3.87914164E-06 -4.24050457E-06 -3.10481378E-07
 -5.71441042E-01  2.18515069E-06  3.22660542E-06  7.02954455E-07 -2.63389683E-07
 -1.55115884E-07  4.98024538E-02  1.50230064E-02 -3.21620445E-07  5.37594015E-08
 -6.16546343E-07 -3.20820629E-07 -9.26055118E-07 -1.14502035E-07 -2.91526110E-07
 -1.68085502E-02  3.22692218E-01 -3.16400415E-06  4.66422741E-01 -7.13514974E-01
 -3.33637642E-01  7.08687842E-06 -1.36796176E-01  1.10062141E+00  2.88523276E-02
  7.21416415E-02 -3.29429258E-02  3.08225996E-07 -3.71571653E-07 -1.11269549E-03
 -5.93356836E-03  1.07342488E-01 -4.97044127E-07  2.10713793E-01 -1.42110168E-01
  1.03351878E-01  3.08272651E-06 -4.75114103E-03  3.74957465E-01  6.38854898E-03
 -2.01337169E-02  2.51091433E-02 -1.98268231E-07  4.37263298E-07  1.80063717E-02
  2.64761661E-01  1.52055377E-01 -1.90409524E-01 -5.89396239E-02 -2.80212592E-01
 -2.31098513E-01 -3.30583514E-02 -6.22915225E-01  9.70677276E-07 -3.20747259E-01
  1.63491508E-01  1.13793015E+00 -2.96868968E-06  1.05560152E-01 -2.71030581E-01
  2.57919182E-02 -7.79321872E-02 -1.23738497E-01 -1.07460389E-06 -1.40480135E-06
 -8.46947596E-02  3.53098995E-03 -4.43286900E-01 -4.65019945E-06 -1.87889106E-01
 -4.14590760E-01  3.74027450E-01  3.12987130E-06 -4.13230179E-01  7.74989121E-01
  9.64354029E-03 -5.98031618E-02 -2.33487579E-02  8.51700312E-08  6.65123894E-07
  1.08107203E-01  1.05212939E-01 -3.39316215E-02 -4.83975176E-01 -1.65725410E-01
 -5.24260140E-01  1.67838309E-01  1.61757671E-07  2.60355610E-07  7.23437689E-01
 -1.94191740E-06 -4.24471274E-06 -1.24461433E-06 -1.09753945E+00  4.99241240E-06
  7.22048872E-06  1.05609908E-07  1.33867487E-07  7.57983678E-08  2.19331468E-02
  2.80109192E-03  1.35008806E-07 -1.11233744E-07 -3.71826043E-07 -8.22893541E-01
  6.44916719E-06  6.21401001E-06  8.44364755E-07  1.17099688E+00 -6.69357999E-06
 -9.01294467E-06  1.90359853E-07 -4.20372340E-07 -1.36491436E-07  9.48241243E-03
  2.46222392E-03 -3.74015520E-07 -9.48652658E-07  5.43812528E-07  1.13971586E-07
  1.00312951E-06  8.22672590E-07 -5.66789245E-07  4.27831458E-02 -4.04704592E-01
  2.66501088E-06  5.50542167E-01  1.36834593E-01  6.36324071E-01 -7.65970027E-08
 -5.32439483E-01 -6.25513978E-02 -2.92603948E-02  6.47745561E-02 -3.44565475E-02
  1.12803921E-06  3.50267047E-07  6.24998544E-02 -8.89658013E-02 -3.21546708E-01
  5.73118865E-06  4.83789007E-01  2.31360179E-01  8.47807235E-01 -1.26665944E-05
 -8.34550731E-01 -4.97834219E-01  9.94575657E-02 -1.48559150E-01 -1.31037000E-01
 -2.00910305E-06 -1.95389030E-06 -3.41651511E-02 -5.91507112E-01 -2.09622184E-01
 -4.60857318E-01 -1.19024336E-01  7.07596840E-02 -5.45360270E-02  2.98081857E-02
  3.80704196E-01  4.71384614E-06  2.57334954E-01  5.69359169E-01 -5.66982132E-01
 -1.61445986E-05 -5.33026613E-01 -2.24733980E+00 -5.89878893E-02  1.12151463E-01
  6.11808032E-02  9.89492058E-07  1.06885688E-06  7.71376048E-03 -3.19159066E-03
  4.85531940E-01 -1.12698006E-06  5.42572786E-01 -7.20449683E-01 -1.23721948E+00
  6.37305880E-06 -1.46769896E+00  2.42632197E+00 -3.73433866E-03 -2.57382371E-02
  8.58097251E-02 -2.89648657E-07  1.12415246E-06 -9.64837138E-03  8.73487722E-02
  1.25399487E+00  9.67611207E-02 -1.45892182E+00  6.69792290E-02  1.41294407E+00
 -3.40682612E-03  4.74847399E-01  4.08735840E-06  2.46812607E-01  4.81012213E-01
 -6.24742563E-01 -8.89310069E-06 -6.47852383E-01 -9.36236742E-01  1.93105292E-02
  1.49227808E-01 -7.81871947E-02  3.17165556E-07 -1.19690736E-06 -8.17508745E-02
  4.67570866E-03  3.20971808E-01  4.28424253E-06 -2.86321123E-02  7.05871137E-01
 -8.95754206E-01 -8.43816430E-06 -1.63135087E-01 -1.22362163E+00 -4.36526430E-03
 -7.83881845E-02  1.24604662E-01  2.10867131E-07  1.89249074E-06  1.21296348E-01
  5.31552822E-01 -1.20912493E+00 -3.95892559E-01  1.06142603E+00 -4.46984298E-01
  1.40882644E+00 -8.34146424E-03 -5.52226785E-01  8.80823477E-07  1.39276925E-01
  3.51378234E-02  1.40839031E+00 -3.02955900E-06 -5.71970054E-01 -3.91236456E-02
  5.48007249E-03 -2.08463980E-02 -5.00867913E-02 -4.10480873E-07 -4.36759524E-07
  1.06537697E-02  3.01220483E-02 -1.00801263E+00  6.23325114E-06  5.99781177E-01
  1.98816170E-01  1.50778939E+00 -1.30458655E-05 -1.23568951E+00 -5.22652363E-01
 -1.11161038E-01 -1.19961425E-01  8.01814982E-02 -6.36611533E-08  9.50569739E-07
 -8.03556434E-02  6.16058316E-01 -1.42184135E+00  6.64437353E-01 -1.31713804E+00
 -5.34918766E-02 -7.48942950E-02  3.71534348E-02 -6.75947269E-01 -1.96748356E-06
 -2.73558522E-02 -3.11806951E-01  1.49810923E+00 -2.65872349E-06 -1.82824644E-01
 -2.55297384E-01 -1.59890442E-01 -1.72584888E-02  1.17305499E-01  4.90919315E-07
  1.70776898E-06 -5.11087928E-02 -3.99715657E-03  3.17833627E-01  1.24887734E-06
  3.71575883E-02  1.93128404E-01 -1.04720713E+00  4.28228666E-07 -4.61276420E-01
  4.16831485E-01  7.72988337E-03 -7.31342223E-02  1.10139141E-01 -2.64690242E-07
  2.23267736E-06  8.35364949E-02  5.55606258E-01 -1.42014786E-01 -5.25344900E-01
  3.38079257E-01  9.10326487E-01 -9.66394155E-01  4.15349025E-02  1.39766867E+00
 -1.08679225E-06 -2.22659271E-01  4.77961682E-03 -5.15320617E+00  9.87277344E-06
  2.04255274E+00 -2.78593379E-01 -1.71213646E-02  3.52763320E-03  1.94488907E-01
 -8.69023546E-08  1.34348635E-06 -6.33509657E-02 -3.66732372E-02 -1.48566609E+00
 -9.14394153E-07 -1.35423280E-01 -8.69095561E-02  5.37551239E+00  1.34517592E-05
  1.45062310E+00  1.25015730E+00 -2.41247869E-02 -4.44525558E-02 -1.23224088E-01
 -4.62135596E-08  5.51923139E-07  9.46873472E-02  9.11578980E-02 -2.14313073E-01
 -2.99404815E-01 -6.13357650E-01  3.42985650E-01  5.65198418E-01 -3.48570180E-08
 -6.65424894E-07  1.53289004E-01 -8.76548956E-07 -1.03866599E-06  2.67206902E-06
 -2.49581925E-02 -7.24289849E-07  7.21085478E-07  7.17748222E-06 -5.52980877E-06
 -1.65744206E-06  6.00336995E-01  1.86097275E-01 -4.87182665E-06  6.84228925E-08
  3.58882956E-07  1.61712681E-01 -7.03293664E-07 -9.07652863E-07 -2.07007751E-06
 -2.99616212E-02 -5.07375020E-07 -7.76536473E-07 -8.71483124E-06  5.50153677E-06
  3.34048223E-06 -5.90882358E-01 -1.81760953E-01  4.02416873E-06  5.08073374E-07
 -5.07161357E-07  8.31318914E-07 -4.83788592E-08 -2.63686905E-07 -5.86316285E-07
 -8.63813071E-08 -2.96020060E-07  2.35490196E-03 -7.47045211E-08  8.94083550E-07
  2.08252612E-06 -6.85266858E-03 -1.02075604E-06 -2.86643464E-07  7.22661873E-06
  1.50410230E-07 -7.52828758E-06 -2.03068851E-01  6.71201750E-01  1.30011690E-06
  5.95512494E-08  7.91591843E-07 -1.11760268E-03 -4.77212334E-07  1.28910773E-06
 -3.33099662E-06  2.75411709E-03 -2.07714142E-07 -7.32948677E-07  5.26854541E-06
  3.26689919E-06 -8.54978167E-06 -1.90868044E-01  6.36419251E-01 -4.62386119E-06
  1.52452452E-06 -7.49055727E-07 -6.61348664E-07  1.59754362E-06 -1.14657536E-06
  5.46325674E-07  6.83394063E-03  1.72912528E-01  9.07563919E-07 -8.67655669E-03
  1.45308100E-01 -5.02224517E-01 -4.93062990E-06  5.28306679E-02 -8.40117672E-01
  5.28346995E-01 -3.43221341E-01 -1.98306763E-01  3.72713968E-06 -1.49471845E-05
  6.93637590E-01  1.11496449E-02  8.72113138E-02  6.17036214E-07 -9.67039634E-03
  8.26175084E-02 -2.83648696E-01  6.28444572E-06 -1.91387542E-01  1.10728376E+00
  2.36012076E-01  1.10102072E-01 -3.44550919E-01 -4.20458071E-06  2.19531804E-06
 -1.30399413E-01  5.77831703E-01  3.71687187E-01 -2.75393861E-01 -2.57311445E-01
  1.23988312E-01  4.43872417E-01 -3.35280206E-07 -4.24958331E-06 -1.27699297E-03
  2.66993152E-07 -1.22975204E-06  1.36956162E-05  5.41934136E-03 -1.87743821E-06
  1.70139458E-05 -1.63648812E-05  2.98888484E-06  1.32547432E-05  2.09796010E-01
 -6.85091986E-01 -6.73845199E-06 -2.96418963E-07 -2.01128543E-06  3.23342545E-04
 -7.49541330E-07 -2.68726349E-07  5.36570353E-06 -2.77790039E-03  2.06666379E-06
 -2.05634798E-05 -1.87803147E-06  3.21738892E-06 -1.71219031E-06 -2.21366770E-01
  7.17431149E-01 -5.04330624E-06 -9.79203321E-06 -7.83195023E-06  1.75537198E-06
  5.11567329E-06 -6.28222224E-06 -8.49007605E-06  2.95694044E-02  1.60362261E-01
 -1.06844226E-06 -6.75543925E-02 -1.35696632E-01 -5.06097374E-01 -1.22475640E-06
  6.69271774E-02 -1.75365259E-01  5.39098424E-01  6.17251691E-02 -5.10329769E-01
 -3.06742677E-06 -1.24034078E-05 -3.66115031E-01  2.57302194E-02  1.99814712E-01
  3.80411024E-07  1.47222236E-01 -1.03445354E-01 -4.31859461E-01  1.72564450E-06
  2.20176222E-01 -1.26034430E-01  6.12518131E-01 -3.53553943E-01 -1.80118003E-01
 -5.84768896E-06  2.80682106E-06  3.94398623E-01 -3.94711834E-02  1.31063142E-01
  5.63634206E-01  8.54445336E-02  5.31970479E-01  5.78339602E-02 -2.05656531E-02