Generated by Multiwfn
SP        UB3LYP                                              6-31G(d)
Number of atoms                            I               10
Charge                                     I                0
Multiplicity                               I                1
Number of electrons                        I               30
Number of alpha electrons                  I               15
Number of beta electrons                   I               15
Number of basis functions                  I               72
Number of independent functions            I               72
Atomic numbers                             I   N=          10
           6           6           1           1           1           6
           6           1           1           1
Nuclear charges                            R   N=          10
  6.00000000E+00  6.00000000E+00  1.00000000E+00  1.00000000E+00  1.00000000E+00
  6.00000000E+00  6.00000000E+00  1.00000000E+00  1.00000000E+00  1.00000000E+00
Current cartesian coordinates              R   N=          30
  4.23298652E-06 -4.98306228E-01  1.69504488E+00 -1.34170555E-05 -2.95475355E+00
  9.49651704E-01 -3.29946181E-05 -3.51884373E+00 -1.03901149E+00 -1.80468845E-05
 -4.49558143E+00  2.32278236E+00  1.82925489E-05 -8.96595678E-02  3.72643670E+00
  4.23298652E-06  1.76669794E+00 -2.55170592E+00  4.23298652E-06  1.76669794E+00
  1.53465981E-02  1.33414664E-05  3.59192110E+00  9.96216899E-01  9.97775394E-06
  2.75262043E-02 -3.66896172E+00  1.77256310E-05  3.52808929E+00 -3.62741575E+00
Translation vectors                        R   N=           0
Number of contracted shells                I               36
Number of primitive shells                 I               84
Highest angular momentum                   I                2
Largest degree of contraction              I                6
Shell types                                I   N=          36
           0           0           1           0           1           2
           0           0           1           0           1           2
           0           0           0           0           0           0
           0           0           1           0           1           2
           0           0           1           0           1           2
           0           0           0           0           0           0
Number of primitives per shell             I   N=          36
           6           3           3           1           1           1
           6           3           3           1           1           1
           3           1           3           1           3           1
           6           3           3           1           1           1
           6           3           3           1           1           1
           3           1           3           1           3           1
Shell to atom map                          I   N=          36
           1           1           1           1           1           1
           2           2           2           2           2           2
           3           3           4           4           5           5
           6           6           6           6           6           6
           7           7           7           7           7           7
           8           8           9           9          10          10
Primitive exponents                        R   N=          84
  3.04752488E+03  4.57369518E+02  1.03948685E+02  2.92101553E+01  9.28666296E+00
  3.16392696E+00  7.86827235E+00  1.88128854E+00  5.44249258E-01  7.86827235E+00
  1.88128854E+00  5.44249258E-01  1.68714478E-01  1.68714478E-01  8.00000000E-01
  3.04752488E+03  4.57369518E+02  1.03948685E+02  2.92101553E+01  9.28666296E+00
  3.16392696E+00  7.86827235E+00  1.88128854E+00  5.44249258E-01  7.86827235E+00
  1.88128854E+00  5.44249258E-01  1.68714478E-01  1.68714478E-01  8.00000000E-01
  1.87311370E+01  2.82539436E+00  6.40121692E-01  1.61277759E-01  1.87311370E+01
  2.82539436E+00  6.40121692E-01  1.61277759E-01  1.87311370E+01  2.82539436E+00
  6.40121692E-01  1.61277759E-01  3.04752488E+03  4.57369518E+02  1.03948685E+02
  2.92101553E+01  9.28666296E+00  3.16392696E+00  7.86827235E+00  1.88128854E+00
  5.44249258E-01  7.86827235E+00  1.88128854E+00  5.44249258E-01  1.68714478E-01
  1.68714478E-01  8.00000000E-01  3.04752488E+03  4.57369518E+02  1.03948685E+02
  2.92101553E+01  9.28666296E+00  3.16392696E+00  7.86827235E+00  1.88128854E+00
  5.44249258E-01  7.86827235E+00  1.88128854E+00  5.44249258E-01  1.68714478E-01
  1.68714478E-01  8.00000000E-01  1.87311370E+01  2.82539436E+00  6.40121692E-01
  1.61277759E-01  1.87311370E+01  2.82539436E+00  6.40121692E-01  1.61277759E-01
  1.87311370E+01  2.82539436E+00  6.40121692E-01  1.61277759E-01
Contraction coefficients                   R   N=          84
  1.83473713E-03  1.40373228E-02  6.88426223E-02  2.32184443E-01  4.67941348E-01
  3.62311985E-01 -1.19332420E-01 -1.60854152E-01  1.14345644E+00  6.89990666E-02
  3.16423961E-01  7.44308291E-01  1.00000000E+00  1.00000000E+00  1.00000000E+00
  1.83473713E-03  1.40373228E-02  6.88426223E-02  2.32184443E-01  4.67941348E-01
  3.62311985E-01 -1.19332420E-01 -1.60854152E-01  1.14345644E+00  6.89990666E-02
  3.16423961E-01  7.44308291E-01  1.00000000E+00  1.00000000E+00  1.00000000E+00
  3.34946043E-02  2.34726953E-01  8.13757326E-01  1.00000000E+00  3.34946043E-02
  2.34726953E-01  8.13757326E-01  1.00000000E+00  3.34946043E-02  2.34726953E-01
  8.13757326E-01  1.00000000E+00  1.83473713E-03  1.40373228E-02  6.88426223E-02
  2.32184443E-01  4.67941348E-01  3.62311985E-01 -1.19332420E-01 -1.60854152E-01
  1.14345644E+00  6.89990666E-02  3.16423961E-01  7.44308291E-01  1.00000000E+00
  1.00000000E+00  1.00000000E+00  1.83473713E-03  1.40373228E-02  6.88426223E-02
  2.32184443E-01  4.67941348E-01  3.62311985E-01 -1.19332420E-01 -1.60854152E-01
  1.14345644E+00  6.89990666E-02  3.16423961E-01  7.44308291E-01  1.00000000E+00
  1.00000000E+00  1.00000000E+00  3.34946043E-02  2.34726953E-01  8.13757326E-01
  1.00000000E+00  3.34946043E-02  2.34726953E-01  8.13757326E-01  1.00000000E+00
  3.34946043E-02  2.34726953E-01  8.13757326E-01  1.00000000E+00
Coordinates of each shell                  R   N=         108
  4.23298652E-06 -4.98306228E-01  1.69504488E+00  4.23298652E-06 -4.98306228E-01
  1.69504488E+00  4.23298652E-06 -4.98306228E-01  1.69504488E+00  4.23298652E-06
 -4.98306228E-01  1.69504488E+00  4.23298652E-06 -4.98306228E-01  1.69504488E+00
  4.23298652E-06 -4.98306228E-01  1.69504488E+00 -1.34170555E-05 -2.95475355E+00
  9.49651704E-01 -1.34170555E-05 -2.95475355E+00  9.49651704E-01 -1.34170555E-05
 -2.95475355E+00  9.49651704E-01 -1.34170555E-05 -2.95475355E+00  9.49651704E-01
 -1.34170555E-05 -2.95475355E+00  9.49651704E-01 -1.34170555E-05 -2.95475355E+00
  9.49651704E-01 -3.29946181E-05 -3.51884373E+00 -1.03901149E+00 -3.29946181E-05
 -3.51884373E+00 -1.03901149E+00 -1.80468845E-05 -4.49558143E+00  2.32278236E+00
 -1.80468845E-05 -4.49558143E+00  2.32278236E+00  1.82925489E-05 -8.96595678E-02
  3.72643670E+00  1.82925489E-05 -8.96595678E-02  3.72643670E+00  4.23298652E-06
  1.76669794E+00 -2.55170592E+00  4.23298652E-06  1.76669794E+00 -2.55170592E+00
  4.23298652E-06  1.76669794E+00 -2.55170592E+00  4.23298652E-06  1.76669794E+00
 -2.55170592E+00  4.23298652E-06  1.76669794E+00 -2.55170592E+00  4.23298652E-06
  1.76669794E+00 -2.55170592E+00  4.23298652E-06  1.76669794E+00  1.53465981E-02
  4.23298652E-06  1.76669794E+00  1.53465981E-02  4.23298652E-06  1.76669794E+00
  1.53465981E-02  4.23298652E-06  1.76669794E+00  1.53465981E-02  4.23298652E-06
  1.76669794E+00  1.53465981E-02  4.23298652E-06  1.76669794E+00  1.53465981E-02
  1.33414664E-05  3.59192110E+00  9.96216899E-01  1.33414664E-05  3.59192110E+00
  9.96216899E-01  9.97775394E-06  2.75262043E-02 -3.66896172E+00  9.97775394E-06
  2.75262043E-02 -3.66896172E+00  1.77256310E-05  3.52808929E+00 -3.62741575E+00
  1.77256310E-05  3.52808929E+00 -3.62741575E+00
Virial Ratio                               R      2.000000000000000E+00
Total Energy                               R      0.000000000000000E+00
Num ILSW                                   I              1
ILSW                                       I   N=         1
           1
Alpha Orbital Energies                     R   N=          72
 -1.02067172E+01 -1.01979320E+01 -7.40109390E-01 -5.52392893E-01 -4.40532728E-01
 -3.92982046E-01 -2.63825906E-01 -1.02229539E+01 -1.01963851E+01 -7.56192105E-01
 -5.72282563E-01 -4.56464446E-01 -4.06354059E-01 -2.72956050E-01 -2.66506803E-01
  5.94308296E-01  6.36009332E-01  6.41794781E-01  6.70372460E-01  8.32537123E-01
  8.66020460E-01  9.26115640E-01  9.63852937E-01  1.10624791E+00  1.45819810E+00
  1.56723227E+00  1.80075471E+00  1.84405465E+00  1.91832802E+00  2.07614885E+00
  2.21602812E+00  2.36481087E+00  2.58194394E+00  2.69244626E+00  4.04701156E+00
  4.21969423E+00 -9.27748183E-02  2.01169840E-02  1.23713148E-01  1.45559757E-01
  2.13553211E-01  3.36093024E-01  5.00396135E-01  5.48459048E-01  5.25466826E-03
  1.15487241E-01  1.40546917E-01  2.05040036E-01  3.18277573E-01  4.88716533E-01
  5.44048989E-01  5.58426328E-01  6.03877782E-01  6.27893468E-01  6.59343574E-01
  8.23895214E-01  8.50832076E-01  9.21092133E-01  9.43650887E-01  1.09408041E+00
  1.44423253E+00  1.54344491E+00  1.73850834E+00  1.81322220E+00  1.90700244E+00
  2.05102663E+00  2.20034563E+00  2.34786911E+00  2.55577531E+00  2.66874679E+00
  4.02056369E+00  4.20722000E+00
Beta Orbital Energies                      R   N=          72
 -1.02229535E+01 -1.01963847E+01 -7.56192139E-01 -5.72282636E-01 -4.56465197E-01
 -4.06354179E-01 -2.72956155E-01 -2.66505921E-01 -1.02067176E+01 -1.01979324E+01
 -7.40109364E-01 -5.52392933E-01 -4.40531813E-01 -3.92981875E-01 -2.63825784E-01
  5.58427116E-01  6.03875631E-01  6.27893694E-01  6.59344571E-01  8.23897545E-01
  8.50833191E-01  9.21092730E-01  9.43652411E-01  1.09407965E+00  1.44423300E+00
  1.54344456E+00  1.73850927E+00  1.81322284E+00  1.90700350E+00  2.05102591E+00
  2.20034357E+00  2.34787069E+00  2.55578083E+00  2.66874764E+00  4.02056459E+00
  4.20721971E+00  5.25506035E-03  1.15488370E-01  1.40546800E-01  2.05039390E-01
  3.18278545E-01  4.88716312E-01  5.44048869E-01 -9.27756243E-02  2.01166717E-02
  1.23712086E-01  1.45559705E-01  2.13553918E-01  3.36092171E-01  5.00396115E-01
  5.48459179E-01  5.94309106E-01  6.36009126E-01  6.41795068E-01  6.70371739E-01
  8.32534968E-01  8.66018958E-01  9.26114972E-01  9.63851447E-01  1.10624875E+00
  1.45819795E+00  1.56723249E+00  1.80075340E+00  1.84405386E+00  1.91832651E+00
  2.07614953E+00  2.21603102E+00  2.36480955E+00  2.58193772E+00  2.69244602E+00
  4.04701067E+00  4.21969470E+00
Alpha MO coefficients                      R   N=        5184
  9.92202799E-01  4.67851990E-02  1.20099022E-09 -6.84991397E-04  6.71667713E-04
 -1.18048518E-02  2.71224031E-09  2.17031651E-03 -1.45005284E-03 -9.00523357E-03
 -8.90788871E-03 -8.95007815E-03  4.07344155E-09  3.81659077E-09  6.08063118E-04
  4.05062497E-02  1.46018147E-03 -3.91946725E-09 -4.73891578E-04 -1.96450479E-04
  4.21916007E-03  1.98425492E-08  1.71918284E-03  1.70938911E-03 -5.58626897E-04
 -7.87315067E-04 -5.35347905E-04 -1.29321148E-09 -1.96144623E-10  5.91170587E-07
 -4.21629337E-05  6.77328254E-04 -1.92127422E-04 -3.02808621E-04 -3.28027410E-04
  2.79445027E-03  0.00000000E+00  0.00000000E+00  0.00000000E+00  0.00000000E+00
  0.00000000E+00  0.00000000E+00  0.00000000E+00  0.00000000E+00  0.00000000E+00
  0.00000000E+00  0.00000000E+00  0.00000000E+00  0.00000000E+00  0.00000000E+00
  0.00000000E+00  0.00000000E+00  0.00000000E+00  0.00000000E+00  0.00000000E+00
  0.00000000E+00  0.00000000E+00  0.00000000E+00  0.00000000E+00  0.00000000E+00
  0.00000000E+00  0.00000000E+00  0.00000000E+00  0.00000000E+00  0.00000000E+00
  0.00000000E+00  0.00000000E+00  0.00000000E+00  0.00000000E+00  0.00000000E+00
  0.00000000E+00  0.00000000E+00 -4.09606503E-02 -2.40202308E-03  2.55481187E-09
  4.23966751E-04  7.59973060E-05  4.77225052E-03 -1.42146718E-08 -1.89104847E-03
 -4.19583557E-04  2.39433507E-04  2.93483771E-05  1.71140536E-04 -1.16363836E-09
 -6.12919582E-10 -4.96691005E-05  9.91889127E-01  4.91559948E-02 -2.19124831E-09
 -3.69907486E-05  3.33259819E-05 -1.29489415E-02 -3.18079167E-10 -8.30446418E-04
 -4.10611251E-04 -9.69331950E-03 -9.27116878E-03 -9.44260485E-03  3.88819572E-09
  2.47195539E-09  9.28106788E-05 -3.45070840E-04  2.11374492E-03 -3.23692342E-04
  2.24341503E-03 -7.96214465E-05 -1.26359656E-04  0.00000000E+00  0.00000000E+00
  0.00000000E+00  0.00000000E+00  0.00000000E+00  0.00000000E+00  0.00000000E+00
  0.00000000E+00  0.00000000E+00  0.00000000E+00  0.00000000E+00  0.00000000E+00
  0.00000000E+00  0.00000000E+00  0.00000000E+00  0.00000000E+00  0.00000000E+00
  0.00000000E+00  0.00000000E+00  0.00000000E+00  0.00000000E+00  0.00000000E+00
  0.00000000E+00  0.00000000E+00  0.00000000E+00  0.00000000E+00  0.00000000E+00
  0.00000000E+00  0.00000000E+00  0.00000000E+00  0.00000000E+00  0.00000000E+00
  0.00000000E+00  0.00000000E+00  0.00000000E+00  0.00000000E+00 -1.37811424E-01
  2.68809268E-01 -7.79879549E-07 -1.42549891E-01  2.73221498E-03  1.92980817E-01
 -1.10848190E-09 -1.59430962E-02  1.46751152E-02 -1.31929942E-02  4.50428931E-03
 -3.55755902E-03  1.80761557E-07  1.31959333E-07  1.18606588E-02 -1.76205037E-01
  3.43603366E-01  4.14025797E-07  7.78475563E-02  3.50249349E-02  2.80731398E-01
 -5.20057098E-08  4.25037694E-03  1.33759702E-03 -1.70947610E-02  5.93448903E-03
  1.80535790E-03  1.86397589E-07  1.47429277E-07  2.01488926E-03  9.49462965E-02
  1.97358864E-02  1.02658900E-01  2.46547271E-02  8.10038844E-02  1.66058649E-02
  0.00000000E+00  0.00000000E+00  0.00000000E+00  0.00000000E+00  0.00000000E+00
  0.00000000E+00  0.00000000E+00  0.00000000E+00  0.00000000E+00  0.00000000E+00
  0.00000000E+00  0.00000000E+00  0.00000000E+00  0.00000000E+00  0.00000000E+00
  0.00000000E+00  0.00000000E+00  0.00000000E+00  0.00000000E+00  0.00000000E+00
  0.00000000E+00  0.00000000E+00  0.00000000E+00  0.00000000E+00  0.00000000E+00
  0.00000000E+00  0.00000000E+00  0.00000000E+00  0.00000000E+00  0.00000000E+00
  0.00000000E+00  0.00000000E+00  0.00000000E+00  0.00000000E+00  0.00000000E+00
  0.00000000E+00 -1.33234884E-01  2.68819485E-01  1.18921252E-06  2.74950121E-02
  1.61937046E-01  2.53404288E-01  4.38429772E-07  1.88370206E-02  5.63148283E-02
 -1.05208934E-02 -1.60082579E-02  1.15460333E-02 -7.98450362E-09  1.88967856E-07
  7.33624650E-03  9.68067881E-02 -1.97364921E-01  2.31645718E-06  2.11514730E-01
  1.18214001E-01 -2.08106679E-01  8.11145566E-07  7.99493078E-02  3.42302448E-02
  8.22106028E-03  7.42083307E-03 -1.20355934E-02 -3.44301978E-10 -1.15855507E-07
  9.32092323E-03 -1.65775726E-01 -8.61903514E-02 -1.22918656E-01 -5.66119917E-02
  1.98714140E-01  1.06490757E-01  0.00000000E+00  0.00000000E+00  0.00000000E+00
  0.00000000E+00  0.00000000E+00  0.00000000E+00  0.00000000E+00  0.00000000E+00
  0.00000000E+00  0.00000000E+00  0.00000000E+00  0.00000000E+00  0.00000000E+00
  0.00000000E+00  0.00000000E+00  0.00000000E+00  0.00000000E+00  0.00000000E+00
  0.00000000E+00  0.00000000E+00  0.00000000E+00  0.00000000E+00  0.00000000E+00
  0.00000000E+00  0.00000000E+00  0.00000000E+00  0.00000000E+00  0.00000000E+00
  0.00000000E+00  0.00000000E+00  0.00000000E+00  0.00000000E+00  0.00000000E+00
  0.00000000E+00  0.00000000E+00  0.00000000E+00 -3.24046752E-02  6.79305873E-02
 -1.98640788E-06 -1.32983385E-01 -2.31510507E-01  4.83669651E-02 -4.22491813E-07
 -1.63881631E-02 -6.18584424E-02 -5.21688640E-04  2.81956021E-03 -1.28743596E-02
  7.49196454E-08 -1.73299980E-08  1.18371531E-02 -1.72523720E-03  2.70900915E-03
  5.45701515E-07  3.30410064E-01 -2.69425231E-01  1.67751582E-02  1.64709487E-07
  1.32681058E-01 -1.16396862E-01  2.19735553E-04 -2.51370459E-03 -5.68626300E-03
  1.84302251E-08  1.23093446E-07  1.49679146E-02  9.58805033E-02  6.60192530E-02
 -2.50330876E-01 -1.91209601E-01 -1.18852620E-01 -1.12394933E-01  0.00000000E+00
  0.00000000E+00  0.00000000E+00  0.00000000E+00  0.00000000E+00  0.00000000E+00
  0.00000000E+00  0.00000000E+00  0.00000000E+00  0.00000000E+00  0.00000000E+00
  0.00000000E+00  0.00000000E+00  0.00000000E+00  0.00000000E+00  0.00000000E+00
  0.00000000E+00  0.00000000E+00  0.00000000E+00  0.00000000E+00  0.00000000E+00
  0.00000000E+00  0.00000000E+00  0.00000000E+00  0.00000000E+00  0.00000000E+00
  0.00000000E+00  0.00000000E+00  0.00000000E+00  0.00000000E+00  0.00000000E+00
  0.00000000E+00  0.00000000E+00  0.00000000E+00  0.00000000E+00  0.00000000E+00
  1.23134069E-02 -1.92543953E-02 -2.44646915E-06 -2.70449018E-01 -2.01383339E-01
 -6.80410282E-02 -7.02914946E-07 -8.38943318E-02 -5.66389557E-02  5.18260835E-04
  2.14406318E-02 -2.61978907E-02  4.75226764E-08 -2.43935168E-07 -1.04872728E-02
 -2.11479704E-02  4.69198214E-02  3.64241554E-06  1.96710743E-01  3.46909249E-01
  5.41048997E-02  1.51427381E-06  7.87319036E-02  1.43652754E-01 -9.51896297E-04
  9.01826198E-03 -1.99256928E-02 -2.46775978E-08 -2.89915900E-07 -1.36427826E-02
 -2.33795177E-01 -2.07457449E-01  7.90811215E-02  6.41365161E-02 -1.94606063E-01
 -1.88408575E-01  0.00000000E+00  0.00000000E+00  0.00000000E+00  0.00000000E+00
  0.00000000E+00  0.00000000E+00  0.00000000E+00  0.00000000E+00  0.00000000E+00
  0.00000000E+00  0.00000000E+00  0.00000000E+00  0.00000000E+00  0.00000000E+00
  0.00000000E+00  0.00000000E+00  0.00000000E+00  0.00000000E+00  0.00000000E+00
  0.00000000E+00  0.00000000E+00  0.00000000E+00  0.00000000E+00  0.00000000E+00
  0.00000000E+00  0.00000000E+00  0.00000000E+00  0.00000000E+00  0.00000000E+00
  0.00000000E+00  0.00000000E+00  0.00000000E+00  0.00000000E+00  0.00000000E+00
  0.00000000E+00  0.00000000E+00  9.48222336E-08 -2.31012261E-07  3.67378495E-01
 -1.75199095E-06 -1.85269020E-06  3.66070052E-08  2.41509009E-01 -1.41655830E-06
 -1.37030869E-06 -1.96209679E-07  2.27278924E-07 -8.90253732E-09 -2.44219487E-02
  3.11840119E-03  1.30606553E-07 -2.12061167E-07  4.70070440E-07  4.35634701E-01
 -3.03346581E-06 -2.89761790E-06  5.93541477E-07  3.28739770E-01 -2.44718455E-06
 -2.13789372E-06  1.45273424E-07 -1.43689566E-07 -3.71778342E-08  1.36112859E-02
  5.16839657E-03 -1.00072936E-07 -1.10531402E-08  9.21242345E-08 -1.65555574E-07
 -1.84165810E-07  1.60359737E-07  2.72536662E-07  0.00000000E+00  0.00000000E+00
  0.00000000E+00  0.00000000E+00  0.00000000E+00  0.00000000E+00  0.00000000E+00
  0.00000000E+00  0.00000000E+00  0.00000000E+00  0.00000000E+00  0.00000000E+00
  0.00000000E+00  0.00000000E+00  0.00000000E+00  0.00000000E+00  0.00000000E+00
  0.00000000E+00  0.00000000E+00  0.00000000E+00  0.00000000E+00  0.00000000E+00
  0.00000000E+00  0.00000000E+00  0.00000000E+00  0.00000000E+00  0.00000000E+00
  0.00000000E+00  0.00000000E+00  0.00000000E+00  0.00000000E+00  0.00000000E+00
  0.00000000E+00  0.00000000E+00  0.00000000E+00  0.00000000E+00  0.00000000E+00
  0.00000000E+00  0.00000000E+00  0.00000000E+00  0.00000000E+00  0.00000000E+00
  0.00000000E+00  0.00000000E+00  0.00000000E+00  0.00000000E+00  0.00000000E+00
  0.00000000E+00  0.00000000E+00  0.00000000E+00  0.00000000E+00  0.00000000E+00
  0.00000000E+00  0.00000000E+00  0.00000000E+00  0.00000000E+00  0.00000000E+00
  0.00000000E+00  0.00000000E+00  0.00000000E+00  0.00000000E+00  0.00000000E+00
  0.00000000E+00  0.00000000E+00  0.00000000E+00  0.00000000E+00  0.00000000E+00
  0.00000000E+00  0.00000000E+00  0.00000000E+00  0.00000000E+00  0.00000000E+00
  1.36501314E-02  1.56806150E-04  1.70732040E-10 -5.64044392E-05 -3.80863641E-04
  4.55934955E-03  2.21627792E-09  8.48856095E-04  2.20061137E-03 -2.94541308E-04
 -3.24454235E-04 -3.89998619E-04  3.38483146E-10  1.61045048E-10  1.61400941E-05
  9.92481460E-01  4.96971416E-02 -1.52599750E-10  2.41397148E-04 -7.80534440E-05
 -1.17493076E-02 -7.06128548E-09 -1.64397035E-03  1.72728121E-03 -1.01332485E-02
 -9.75146137E-03 -9.71956219E-03  1.50945946E-09 -3.88510153E-10 -1.23353190E-04
 -2.32785246E-04  2.55965806E-03 -4.31783616E-05  5.04126619E-04 -1.70774606E-04
 -2.32272398E-04  0.00000000E+00  0.00000000E+00  0.00000000E+00  0.00000000E+00
  0.00000000E+00  0.00000000E+00  0.00000000E+00  0.00000000E+00  0.00000000E+00
  0.00000000E+00  0.00000000E+00  0.00000000E+00  0.00000000E+00  0.00000000E+00
  0.00000000E+00  0.00000000E+00  0.00000000E+00  0.00000000E+00  0.00000000E+00
  0.00000000E+00  0.00000000E+00  0.00000000E+00  0.00000000E+00  0.00000000E+00
  0.00000000E+00  0.00000000E+00  0.00000000E+00  0.00000000E+00  0.00000000E+00
  0.00000000E+00  0.00000000E+00  0.00000000E+00  0.00000000E+00  0.00000000E+00
  0.00000000E+00  0.00000000E+00  9.92686766E-01  4.87434374E-02  4.47736059E-09
  2.77939718E-05 -6.44327827E-06 -1.27855874E-02 -1.38678552E-08 -1.13682949E-04
 -8.27820252E-04 -9.69199118E-03 -9.30252719E-03 -9.02119060E-03  1.00793191E-09
 -2.25431688E-09  8.08803579E-06 -1.40880470E-02 -1.18773332E-03  4.02471547E-10
  5.18825039E-06  4.29667124E-04  4.40227418E-03  3.64831070E-09  9.46010643E-05
 -1.85646012E-03  1.75924760E-05 -6.25065838E-05 -2.25612649E-04 -1.65160793E-10
 -1.02147080E-09  1.11261160E-05 -8.30929745E-05 -5.63232541E-05 -3.59151383E-04
  2.13882846E-03 -3.32478766E-04  2.23609250E-03  0.00000000E+00  0.00000000E+00
  0.00000000E+00  0.00000000E+00  0.00000000E+00  0.00000000E+00  0.00000000E+00
  0.00000000E+00  0.00000000E+00  0.00000000E+00  0.00000000E+00  0.00000000E+00
  0.00000000E+00  0.00000000E+00  0.00000000E+00  0.00000000E+00  0.00000000E+00
  0.00000000E+00  0.00000000E+00  0.00000000E+00  0.00000000E+00  0.00000000E+00
  0.00000000E+00  0.00000000E+00  0.00000000E+00  0.00000000E+00  0.00000000E+00
  0.00000000E+00  0.00000000E+00  0.00000000E+00  0.00000000E+00  0.00000000E+00
  0.00000000E+00  0.00000000E+00  0.00000000E+00  0.00000000E+00 -1.63260500E-01
  3.18417488E-01  4.31826121E-07  1.02296800E-02  9.79649330E-02  2.32575090E-01
  1.71393516E-07  7.24331994E-03  2.47324846E-04 -1.85368644E-02  7.79744374E-04
  8.80326217E-03  5.83329773E-08 -6.35122028E-08  1.21832244E-03 -1.55611411E-01
  3.13090790E-01  2.19548830E-07  3.35303577E-02 -1.19319540E-01  2.41705929E-01
  5.89458383E-08  1.02852755E-02 -1.40072850E-02 -1.70940541E-02 -1.13651112E-03
  5.91319939E-03  7.62272879E-08  4.88267232E-09  4.60332299E-05  9.34598654E-02
  2.06124079E-02  8.53324153E-02  2.03734684E-02  9.38339900E-02  1.92210852E-02
  0.00000000E+00  0.00000000E+00  0.00000000E+00  0.00000000E+00  0.00000000E+00
  0.00000000E+00  0.00000000E+00  0.00000000E+00  0.00000000E+00  0.00000000E+00
  0.00000000E+00  0.00000000E+00  0.00000000E+00  0.00000000E+00  0.00000000E+00
  0.00000000E+00  0.00000000E+00  0.00000000E+00  0.00000000E+00  0.00000000E+00
  0.00000000E+00  0.00000000E+00  0.00000000E+00  0.00000000E+00  0.00000000E+00
  0.00000000E+00  0.00000000E+00  0.00000000E+00  0.00000000E+00  0.00000000E+00
  0.00000000E+00  0.00000000E+00  0.00000000E+00  0.00000000E+00  0.00000000E+00
  0.00000000E+00  1.14170123E-01 -2.30627455E-01 -8.93388784E-07  2.96278445E-02
  2.08877712E-01 -2.35051273E-01 -3.17465474E-07  1.30605702E-02  7.27948443E-02
  1.16327353E-02 -1.53044677E-02  8.34710347E-03 -5.71193113E-08  1.42215847E-07
  1.73189930E-03 -1.28868110E-01  2.69167197E-01  3.20172232E-07  1.04115766E-01
  1.19877577E-01  2.65768470E-01  1.21181432E-07  2.61118537E-02  4.39379001E-02
 -1.22125121E-02  1.02404739E-02 -1.13757249E-02  1.15323496E-07  6.30431622E-08
  4.99101300E-03  1.86539416E-01  9.48256187E-02 -1.64134108E-01 -7.61784488E-02
 -1.45707125E-01 -7.26069310E-02  0.00000000E+00  0.00000000E+00  0.00000000E+00
  0.00000000E+00  0.00000000E+00  0.00000000E+00  0.00000000E+00  0.00000000E+00
  0.00000000E+00  0.00000000E+00  0.00000000E+00  0.00000000E+00  0.00000000E+00
  0.00000000E+00  0.00000000E+00  0.00000000E+00  0.00000000E+00  0.00000000E+00
  0.00000000E+00  0.00000000E+00  0.00000000E+00  0.00000000E+00  0.00000000E+00
  0.00000000E+00  0.00000000E+00  0.00000000E+00  0.00000000E+00  0.00000000E+00
  0.00000000E+00  0.00000000E+00  0.00000000E+00  0.00000000E+00  0.00000000E+00
  0.00000000E+00  0.00000000E+00  0.00000000E+00  8.14957102E-04 -1.88258726E-03
  1.54337158E-06  3.44931598E-01 -2.00745956E-01 -1.60198463E-02  5.73929158E-07
  1.27739606E-01 -7.47773099E-02 -3.74750547E-04  1.10955190E-02 -3.91087781E-03
  2.29577631E-07 -7.10690834E-08 -1.13608683E-02  3.46326582E-02 -7.95206057E-02
  1.14396057E-06  2.50624568E-01  1.55337291E-01 -7.07187142E-02  3.98389785E-07
  9.42278996E-02  1.94582319E-02  1.25300469E-03  1.23652510E-02 -1.80656786E-03
  7.24170514E-08 -1.75537253E-08 -3.14297605E-03  1.36508577E-01  1.14885813E-01
 -1.03615210E-01 -7.52646522E-02  2.44773010E-01  1.89136007E-01  0.00000000E+00
  0.00000000E+00  0.00000000E+00  0.00000000E+00  0.00000000E+00  0.00000000E+00
  0.00000000E+00  0.00000000E+00  0.00000000E+00  0.00000000E+00  0.00000000E+00
  0.00000000E+00  0.00000000E+00  0.00000000E+00  0.00000000E+00  0.00000000E+00
  0.00000000E+00  0.00000000E+00  0.00000000E+00  0.00000000E+00  0.00000000E+00
  0.00000000E+00  0.00000000E+00  0.00000000E+00  0.00000000E+00  0.00000000E+00
  0.00000000E+00  0.00000000E+00  0.00000000E+00  0.00000000E+00  0.00000000E+00
  0.00000000E+00  0.00000000E+00  0.00000000E+00  0.00000000E+00  0.00000000E+00
  1.87994248E-02 -4.13866591E-02  7.13854047E-07 -2.49815996E-01 -3.17450395E-01
 -3.65355800E-02  3.41905075E-07 -9.40558169E-02 -1.19658998E-01  1.32072788E-03
  1.31406327E-02 -2.29316603E-03 -1.16099823E-07 -2.02132000E-08  1.55497842E-02
 -1.25542716E-02  2.31229273E-02  1.07644768E-06  5.15269285E-02  3.66025419E-01
  8.37289523E-02  3.73183466E-07 -2.20699208E-03  1.24152401E-01 -8.23652105E-04
  1.38798784E-02 -9.27106373E-03  7.69525759E-08  1.35290536E-08  1.66719419E-02
  1.72394168E-01  1.59327855E-01  2.32744594E-01  2.03205757E-01 -5.26854571E-02
 -4.25578834E-02  0.00000000E+00  0.00000000E+00  0.00000000E+00  0.00000000E+00
  0.00000000E+00  0.00000000E+00  0.00000000E+00  0.00000000E+00  0.00000000E+00
  0.00000000E+00  0.00000000E+00  0.00000000E+00  0.00000000E+00  0.00000000E+00
  0.00000000E+00  0.00000000E+00  0.00000000E+00  0.00000000E+00  0.00000000E+00
  0.00000000E+00  0.00000000E+00  0.00000000E+00  0.00000000E+00  0.00000000E+00
  0.00000000E+00  0.00000000E+00  0.00000000E+00  0.00000000E+00  0.00000000E+00
  0.00000000E+00  0.00000000E+00  0.00000000E+00  0.00000000E+00  0.00000000E+00
  0.00000000E+00  0.00000000E+00  1.32502844E-07 -2.13158333E-07  3.79260997E-01
 -1.98119577E-06  2.79744541E-06 -8.93732164E-07  2.70853994E-01 -1.09170520E-06
  1.55599478E-06  7.18772728E-08 -6.63820634E-08 -2.41091203E-08  8.78860982E-04
  1.64113580E-02  1.98244318E-07  6.63113853E-07 -1.29437930E-06  4.35319198E-01
  2.64594329E-06 -3.69927247E-06 -3.97363902E-06  2.92675002E-01  1.72547909E-06
 -2.27283014E-06  3.11473761E-08  6.04490101E-08  1.05305567E-07  2.00592493E-03
 -1.60595126E-02  1.33299561E-07  1.10797719E-06  1.20560010E-06  8.62184294E-07
  8.08045443E-07 -1.25002756E-06 -1.76762887E-06  0.00000000E+00  0.00000000E+00
  0.00000000E+00  0.00000000E+00  0.00000000E+00  0.00000000E+00  0.00000000E+00
  0.00000000E+00  0.00000000E+00  0.00000000E+00  0.00000000E+00  0.00000000E+00
  0.00000000E+00  0.00000000E+00  0.00000000E+00  0.00000000E+00  0.00000000E+00
  0.00000000E+00  0.00000000E+00  0.00000000E+00  0.00000000E+00  0.00000000E+00
  0.00000000E+00  0.00000000E+00  0.00000000E+00  0.00000000E+00  0.00000000E+00
  0.00000000E+00  0.00000000E+00  0.00000000E+00  0.00000000E+00  0.00000000E+00
  0.00000000E+00  0.00000000E+00  0.00000000E+00  0.00000000E+00 -2.26956606E-02
  5.64634159E-02 -4.25711353E-06 -1.32365572E-01  1.13113818E-01  1.15274145E-02
 -2.90549600E-06 -4.75346915E-02  2.17653792E-02 -1.25081308E-03 -2.13002066E-03
 -3.08648504E-03 -1.30013294E-07 -5.16792897E-08  2.98186110E-02  7.27143997E-02
 -1.51510867E-01 -2.59519069E-06  4.61769530E-01 -2.58581888E-01 -3.50125112E-01
 -1.88016580E-06  3.00005510E-01 -2.10089944E-01  9.71177993E-04  9.65965878E-03
  1.05650452E-02  2.88381328E-08  2.12072704E-07  1.26569581E-02  1.43275156E-01
  1.74982282E-01  1.08151744E-01  1.29015371E-01 -1.52924593E-01 -2.07133493E-01
 -4.35337369E-02 -1.25662988E-01 -1.72264089E-06  1.84423185E-01 -4.77793741E-01
  4.85150192E-01  3.25856340E-06 -8.37840290E-02  6.37895809E-01  4.46151921E-02
 -5.34787170E-03 -9.35745422E-02 -5.88708071E-07 -1.11260971E-06 -4.46587462E-02
  3.78997059E-03 -1.88244325E-01 -2.41513745E-06 -8.62380795E-03 -4.11700892E-01
  2.09055873E-01  3.91055234E-06 -2.17153814E-01  8.98705220E-01  5.78577547E-03
 -4.76323330E-02  1.24563648E-02 -1.44692027E-08  8.50353718E-07  7.51031176E-02
  3.08782928E-01  1.71293426E-01 -3.99444665E-01 -2.20047510E-01 -5.34146691E-01
 -8.74032852E-02  0.00000000E+00  0.00000000E+00  0.00000000E+00  0.00000000E+00
  0.00000000E+00  0.00000000E+00  0.00000000E+00  0.00000000E+00  0.00000000E+00
  0.00000000E+00  0.00000000E+00  0.00000000E+00  0.00000000E+00  0.00000000E+00
  0.00000000E+00  0.00000000E+00  0.00000000E+00  0.00000000E+00  0.00000000E+00
  0.00000000E+00  0.00000000E+00  0.00000000E+00  0.00000000E+00  0.00000000E+00
  0.00000000E+00  0.00000000E+00  0.00000000E+00  0.00000000E+00  0.00000000E+00
  0.00000000E+00  0.00000000E+00  0.00000000E+00  0.00000000E+00  0.00000000E+00
  0.00000000E+00  0.00000000E+00 -1.51735852E-07  8.03019478E-06 -8.56184887E-01
  8.28426214E-06 -1.21169085E-06 -1.05662768E-05  1.19893276E+00 -8.68640574E-06
  3.71868471E-10  1.32198457E-07  7.26506758E-07  1.07167914E-06 -4.39323097E-03
 -6.81374418E-03  6.23208719E-07  2.92568096E-07  6.16943379E-06  6.88343699E-01
 -4.19918244E-06 -3.16693512E-06 -9.12186387E-06 -1.05145057E+00  1.10963586E-05
  5.06925413E-06 -6.29489013E-07  1.22860762E-06  9.25312101E-07 -2.11630531E-02