 Entering Gaussian System, Link 0=g16
 Initial command:
 /home/kangmg/compchem/gaussian/g16/l1.exe "/home/kangmg/compchem/gaussian/scratch/Gau-32597.inp" -scrdir="/home/kangmg/compchem/gaussian/scratch/"
 Entering Link 1 = /home/kangmg/compchem/gaussian/g16/l1.exe PID=     32599.
  
 Copyright (c) 1988,1990,1992,1993,1995,1998,2003,2009,2016,
            Gaussian, Inc.  All Rights Reserved.
  
 This is part of the Gaussian(R) 16 program.  It is based on
 the Gaussian(R) 09 system (copyright 2009, Gaussian, Inc.),
 the Gaussian(R) 03 system (copyright 2003, Gaussian, Inc.),
 the Gaussian(R) 98 system (copyright 1998, Gaussian, Inc.),
 the Gaussian(R) 94 system (copyright 1995, Gaussian, Inc.),
 the Gaussian 92(TM) system (copyright 1992, Gaussian, Inc.),
 the Gaussian 90(TM) system (copyright 1990, Gaussian, Inc.),
 the Gaussian 88(TM) system (copyright 1988, Gaussian, Inc.),
 the Gaussian 86(TM) system (copyright 1986, Carnegie Mellon
 University), and the Gaussian 82(TM) system (copyright 1983,
 Carnegie Mellon University). Gaussian is a federally registered
 trademark of Gaussian, Inc.
  
 This software contains proprietary and confidential information,
 including trade secrets, belonging to Gaussian, Inc.
  
 This software is provided under written license and may be
 used, copied, transmitted, or stored only in accord with that
 written license.
  
 The following legend is applicable only to US Government
 contracts under FAR:
  
                    RESTRICTED RIGHTS LEGEND
  
 Use, reproduction and disclosure by the US Government is
 subject to restrictions as set forth in subparagraphs (a)
 and (c) of the Commercial Computer Software - Restricted
 Rights clause in FAR 52.227-19.
  
 Gaussian, Inc.
 340 Quinnipiac St., Bldg. 40, Wallingford CT 06492
  
  
 ---------------------------------------------------------------
 Warning -- This program may not be used in any manner that
 competes with the business of Gaussian, Inc. or will provide
 assistance to any competitor of Gaussian, Inc.  The licensee
 of this program is prohibited from giving any competitor of
 Gaussian, Inc. access to this program.  By using this program,
 the user acknowledges that Gaussian, Inc. is engaged in the
 business of creating and licensing software in the field of
 computational chemistry and represents and warrants to the
 licensee that it is not a competitor of Gaussian, Inc. and that
 it will not use this program in any manner prohibited above.
 ---------------------------------------------------------------
  

 Cite this work as:
 Gaussian 16, Revision A.03,
 M. J. Frisch, G. W. Trucks, H. B. Schlegel, G. E. Scuseria, 
 M. A. Robb, J. R. Cheeseman, G. Scalmani, V. Barone, 
 G. A. Petersson, H. Nakatsuji, X. Li, M. Caricato, A. V. Marenich, 
 J. Bloino, B. G. Janesko, R. Gomperts, B. Mennucci, H. P. Hratchian, 
 J. V. Ortiz, A. F. Izmaylov, J. L. Sonnenberg, D. Williams-Young, 
 F. Ding, F. Lipparini, F. Egidi, J. Goings, B. Peng, A. Petrone, 
 T. Henderson, D. Ranasinghe, V. G. Zakrzewski, J. Gao, N. Rega, 
 G. Zheng, W. Liang, M. Hada, M. Ehara, K. Toyota, R. Fukuda, 
 J. Hasegawa, M. Ishida, T. Nakajima, Y. Honda, O. Kitao, H. Nakai, 
 T. Vreven, K. Throssell, J. A. Montgomery, Jr., J. E. Peralta, 
 F. Ogliaro, M. J. Bearpark, J. J. Heyd, E. N. Brothers, K. N. Kudin, 
 V. N. Staroverov, T. A. Keith, R. Kobayashi, J. Normand, 
 K. Raghavachari, A. P. Rendell, J. C. Burant, S. S. Iyengar, 
 J. Tomasi, M. Cossi, J. M. Millam, M. Klene, C. Adamo, R. Cammi, 
 J. W. Ochterski, R. L. Martin, K. Morokuma, O. Farkas, 
 J. B. Foresman, and D. J. Fox, Gaussian, Inc., Wallingford CT, 2016.
 
 ******************************************
 Gaussian 16:  ES64L-G16RevA.03 25-Dec-2016
                 8-Jan-2024 
 ******************************************
 %chk=2_final.chk
 %oldchk=2_promol.chk
 Copying data from "2_promol.chk" to current chk file "2_final.chk"
 IOpt=  2 FromEx=T IUOpen= 4 IOptOp= 5 NList=   0 IFRang= 0 IUIn= 4 IUOut= 2.
 ----------------------------------------------------------
 #p b3lyp/6-31G* em=gd3bj ExtraLinks=L608 nosymm guess=read
 ----------------------------------------------------------
 1/38=1,172=1/1;
 2/12=2,15=1,17=6,18=5,40=1/2;
 3/5=1,6=6,7=1,11=2,25=1,30=1,74=-5,116=-2,124=41/1,2,3;
 4/5=1/1;
 5/5=2,38=6/2;
 6/7=2,8=2,9=2,10=2,28=1/1,8;
 99/5=1,9=1/99;
 Leave Link    1 at Mon Jan  8 21:34:18 2024, MaxMem=   104857600 cpu:               0.0 elap:               0.0
 (Enter /home/kangmg/compchem/gaussian/g16/l101.exe)
 --------------
 opted geometry
 --------------
 Symbolic Z-matrix:
 Charge =  0 Multiplicity = 1
 C                    -0.04906  -0.26851   0.89379 
 C                     0.14091  -1.55547   0.50319 
 H                     0.34663  -1.83205  -0.53496 
 H                     0.10822  -2.37936   1.21941 
 H                    -0.23415  -0.06853   1.95594 
 C                    -0.04906   0.9332   -1.34881 
 C                    -0.04906   0.9332    0.00947 
 H                    -0.03591   1.89808   0.53027 
 H                    -0.07799   0.01214  -1.93819 
 H                    -0.03224   1.86463  -1.9189 
 
 ITRead=  0  0  0  0  0  0  0  0  0  0
 MicOpt= -1 -1 -1 -1 -1 -1 -1 -1 -1 -1
 NAtoms=     10 NQM=       10 NQMF=       0 NMMI=      0 NMMIF=      0
                NMic=       0 NMicF=      0.
                    Isotopes and Nuclear Properties:
 (Nuclear quadrupole moments (NQMom) in fm**2, nuclear magnetic moments (NMagM)
  in nuclear magnetons)

  Atom         1           2           3           4           5           6           7           8           9          10
 IAtWgt=          12          12           1           1           1          12          12           1           1           1
 AtmWgt=  12.0000000  12.0000000   1.0078250   1.0078250   1.0078250  12.0000000  12.0000000   1.0078250   1.0078250   1.0078250
 NucSpn=           0           0           1           1           1           0           0           1           1           1
 AtZEff=  -0.0000000  -0.0000000  -0.0000000  -0.0000000  -0.0000000  -0.0000000  -0.0000000  -0.0000000  -0.0000000  -0.0000000
 NQMom=    0.0000000   0.0000000   0.0000000   0.0000000   0.0000000   0.0000000   0.0000000   0.0000000   0.0000000   0.0000000
 NMagM=    0.0000000   0.0000000   2.7928460   2.7928460   2.7928460   0.0000000   0.0000000   2.7928460   2.7928460   2.7928460
 AtZNuc=   6.0000000   6.0000000   1.0000000   1.0000000   1.0000000   6.0000000   6.0000000   1.0000000   1.0000000   1.0000000
 Leave Link  101 at Mon Jan  8 21:34:18 2024, MaxMem=   104857600 cpu:               0.2 elap:               0.2
 (Enter /home/kangmg/compchem/gaussian/g16/l202.exe)
                          Input orientation:                          
 ---------------------------------------------------------------------
 Center     Atomic      Atomic             Coordinates (Angstroms)
 Number     Number       Type             X           Y           Z
 ---------------------------------------------------------------------
      1          6           0       -0.049058   -0.268512    0.893791
      2          6           0        0.140912   -1.555469    0.503190
      3          1           0        0.346632   -1.832052   -0.534956
      4          1           0        0.108220   -2.379365    1.219413
      5          1           0       -0.234152   -0.068528    1.955936
      6          6           0       -0.049058    0.933201   -1.348805
      7          6           0       -0.049058    0.933201    0.009473
      8          1           0       -0.035911    1.898084    0.530274
      9          1           0       -0.077990    0.012138   -1.938189
     10          1           0       -0.032239    1.864632   -1.918896
 ---------------------------------------------------------------------
                    Distance matrix (angstroms):
                    1          2          3          4          5
     1  C    0.000000
     2  C    1.358277   0.000000
     3  H    2.154657   1.093877   0.000000
     4  H    2.141604   1.092176   1.853160   0.000000
     5  H    1.096543   2.112378   3.106746   2.449419   0.000000
     6  C    2.544278   3.107966   2.909561   4.194469   3.458184
     7  C    1.492022   2.544272   2.845979   3.530125   2.196916
     8  H    2.196919   3.458183   3.898073   4.335004   2.437083
     9  H    2.845999   2.909578   2.355930   3.965402   3.898090
    10  H    3.530126   4.194470   3.965389   5.280173   4.334997
                    6          7          8          9         10
     6  C    0.000000
     7  C    1.358279   0.000000
     8  H    2.112372   1.096543   0.000000
     9  H    1.093876   2.154665   3.106746   0.000000
    10  H    1.092177   2.141601   2.449401   1.853159   0.000000
 Symmetry turned off by external request.
 Stoichiometry    C4H6
 Framework group  C1[X(C4H6)]
 Deg. of freedom    24
 Full point group                 C1      NOp   1
 Rotational constants (GHZ):          20.6917365           5.5443220           4.3838331
 Leave Link  202 at Mon Jan  8 21:34:18 2024, MaxMem=   104857600 cpu:               0.0 elap:               0.0
 (Enter /home/kangmg/compchem/gaussian/g16/l301.exe)
 Standard basis: 6-31G(d) (6D, 7F)
 Ernie: Thresh=  0.10000D-02 Tol=  0.10000D-05 Strict=F.
    72 basis functions,   136 primitive gaussians,    72 cartesian basis functions
    15 alpha electrons       15 beta electrons
       nuclear repulsion energy       103.3740315223 Hartrees.
 IExCor=  402 DFT=T Ex+Corr=B3LYP ExCW=0 ScaHFX=  0.200000
 ScaDFX=  0.800000  0.720000  1.000000  0.810000 ScalE2=  1.000000  1.000000
 IRadAn=      5 IRanWt=     -1 IRanGd=            0 ICorTp=0 IEmpDi=141
 NAtoms=   10 NActive=   10 NUniq=   10 SFac= 1.00D+00 NAtFMM=   60 NAOKFM=F Big=F
 Integral buffers will be    131072 words long.
 Raffenetti 2 integral format.
 Two-electron integral symmetry is turned off.
 R6Disp:  Grimme-D3(BJ) Dispersion energy=       -0.0110422179 Hartrees.
 Nuclear repulsion after empirical dispersion term =      103.3629893044 Hartrees.
 Leave Link  301 at Mon Jan  8 21:34:18 2024, MaxMem=   104857600 cpu:               0.1 elap:               0.1
 (Enter /home/kangmg/compchem/gaussian/g16/l302.exe)
 NPDir=0 NMtPBC=     1 NCelOv=     1 NCel=       1 NClECP=     1 NCelD=      1
         NCelK=      1 NCelE2=     1 NClLst=     1 CellRange=     0.0.
 One-electron integrals computed using PRISM.
 NBasis=    72 RedAO= T EigKep=  3.20D-03  NBF=    72
 NBsUse=    72 1.00D-06 EigRej= -1.00D+00 NBFU=    72
 Precomputing XC quadrature grid using
 IXCGrd= 4 IRadAn=           5 IRanWt=          -1 IRanGd=           0 AccXCQ= 0.00D+00.
 Generated NRdTot=       0 NPtTot=           0 NUsed=           0 NTot=          32
 NSgBfM=    72    72    72    72    72 MxSgAt=    10 MxSgA2=    10.
 Leave Link  302 at Mon Jan  8 21:34:18 2024, MaxMem=   104857600 cpu:               0.3 elap:               0.3
 (Enter /home/kangmg/compchem/gaussian/g16/l303.exe)
 DipDrv:  MaxL=1.
 Leave Link  303 at Mon Jan  8 21:34:18 2024, MaxMem=   104857600 cpu:               0.0 elap:               0.0
 (Enter /home/kangmg/compchem/gaussian/g16/l401.exe)
 Initial guess from the checkpoint file:  "2_final.chk"
 B after Tr=     0.000000    0.000000    0.000000
         Rot=    1.000000   -0.000000    0.000000    0.000000 Ang=   0.00 deg.
 Guess basis will be translated and rotated to current coordinates.
 JPrj=2 DoOrth=T DoCkMO=T.
 Initial guess <Sx>= 0.0000 <Sy>= 0.0000 <Sz>= 0.0000 <S**2>= 0.6219 S= 0.4337
 Leave Link  401 at Mon Jan  8 21:34:19 2024, MaxMem=   104857600 cpu:               0.1 elap:               0.1
 (Enter /home/kangmg/compchem/gaussian/g16/l502.exe)
 Keep R1 and R2 ints in memory in canonical form, NReq=7805935.
 FoFCou: FMM=F IPFlag=           0 FMFlag=           0 FMFlg1=           0
         NFxFlg=           0 DoJE=F BraDBF=F KetDBF=F FulRan=T
         wScrn=  0.000000 ICntrl=       600 IOpCl=  0 I1Cent=           0 NGrid=           0
         NMat0=    1 NMatS0=   2628 NMatT0=    0 NMatD0=    1 NMtDS0=    0 NMtDT0=    0
 Symmetry not used in FoFCou.
 Two-electron integral symmetry not used.
 UHF open shell SCF:
 Using DIIS extrapolation, IDIIS=  1040.
 NGot=   104857600 LenX=    97936966 LenY=    97931341
 Requested convergence on RMS density matrix=1.00D-08 within 128 cycles.
 Requested convergence on MAX density matrix=1.00D-06.
 Requested convergence on             energy=1.00D-06.
 No special actions if energy rises.

 Cycle   1  Pass 1  IDiag  1:
 E= -155.720099057705    
 DIIS: error= 3.66D-02 at cycle   1 NSaved=   1.
 NSaved= 1 IEnMin= 1 EnMin= -155.720099057705     IErMin= 1 ErrMin= 3.66D-02
 ErrMax= 3.66D-02  0.00D+00 EMaxC= 1.00D-01 BMatC= 3.76D-01 BMatP= 3.76D-01
 IDIUse=3 WtCom= 6.34D-01 WtEn= 3.66D-01
 Coeff-Com:  0.100D+01
 Coeff-En:   0.100D+01
 Coeff:      0.100D+01
 Gap=     1.003 Goal=   None    Shift=    0.000
 Gap=     0.977 Goal=   None    Shift=    0.000
 GapD=    0.977 DampG=2.000 DampE=0.500 DampFc=1.0000 IDamp=-1.
 RMSDP=1.07D-02 MaxDP=1.60D-01              OVMax= 2.59D-01

 Cycle   2  Pass 1  IDiag  1:
 E= -155.967743415523     Delta-E=       -0.247644357818 Rises=F Damp=F
 DIIS: error= 1.59D-02 at cycle   2 NSaved=   2.
 NSaved= 2 IEnMin= 2 EnMin= -155.967743415523     IErMin= 2 ErrMin= 1.59D-02
 ErrMax= 1.59D-02  0.00D+00 EMaxC= 1.00D-01 BMatC= 6.81D-02 BMatP= 3.76D-01
 IDIUse=3 WtCom= 8.41D-01 WtEn= 1.59D-01
 Coeff-Com:  0.758D-01 0.924D+00
 Coeff-En:   0.000D+00 0.100D+01
 Coeff:      0.638D-01 0.936D+00
 Gap=     0.196 Goal=   None    Shift=    0.000
 Gap=     0.196 Goal=   None    Shift=    0.000
 RMSDP=4.05D-03 MaxDP=6.23D-02 DE=-2.48D-01 OVMax= 1.14D-01

 Cycle   3  Pass 1  IDiag  1:
 E= -155.958023177933     Delta-E=        0.009720237590 Rises=F Damp=F
 DIIS: error= 2.46D-02 at cycle   3 NSaved=   3.
 NSaved= 3 IEnMin= 2 EnMin= -155.967743415523     IErMin= 2 ErrMin= 1.59D-02
 ErrMax= 2.46D-02  0.00D+00 EMaxC= 1.00D-01 BMatC= 1.34D-01 BMatP= 6.81D-02
 IDIUse=2 WtCom= 0.00D+00 WtEn= 1.00D+00
 Coeff-En:   0.000D+00 0.592D+00 0.408D+00
 Coeff:      0.000D+00 0.592D+00 0.408D+00
 Gap=     0.192 Goal=   None    Shift=    0.000
 Gap=     0.192 Goal=   None    Shift=    0.000
 RMSDP=2.58D-03 MaxDP=3.86D-02 DE= 9.72D-03 OVMax= 9.92D-02

 Cycle   4  Pass 1  IDiag  1:
 E= -155.993105160796     Delta-E=       -0.035081982863 Rises=F Damp=F
 DIIS: error= 3.48D-03 at cycle   4 NSaved=   4.
 NSaved= 4 IEnMin= 4 EnMin= -155.993105160796     IErMin= 4 ErrMin= 3.48D-03
 ErrMax= 3.48D-03  0.00D+00 EMaxC= 1.00D-01 BMatC= 5.83D-03 BMatP= 6.81D-02
 IDIUse=3 WtCom= 9.65D-01 WtEn= 3.48D-02
 Coeff-Com: -0.446D-01-0.625D-01 0.150D+00 0.958D+00
 Coeff-En:   0.000D+00 0.000D+00 0.000D+00 0.100D+01
 Coeff:     -0.430D-01-0.604D-01 0.144D+00 0.959D+00
 Gap=     0.194 Goal=   None    Shift=    0.000
 Gap=     0.194 Goal=   None    Shift=    0.000
 RMSDP=8.49D-04 MaxDP=1.28D-02 DE=-3.51D-02 OVMax= 2.24D-02

 Cycle   5  Pass 1  IDiag  1:
 E= -155.995425552010     Delta-E=       -0.002320391214 Rises=F Damp=F
 DIIS: error= 7.20D-04 at cycle   5 NSaved=   5.
 NSaved= 5 IEnMin= 5 EnMin= -155.995425552010     IErMin= 5 ErrMin= 7.20D-04
 ErrMax= 7.20D-04  0.00D+00 EMaxC= 1.00D-01 BMatC= 1.96D-04 BMatP= 5.83D-03
 IDIUse=3 WtCom= 9.93D-01 WtEn= 7.20D-03
 Coeff-Com:  0.271D-02-0.610D-01-0.216D-01 0.136D+00 0.944D+00
 Coeff-En:   0.000D+00 0.000D+00 0.000D+00 0.000D+00 0.100D+01
 Coeff:      0.269D-02-0.606D-01-0.214D-01 0.135D+00 0.944D+00
 Gap=     0.194 Goal=   None    Shift=    0.000
 Gap=     0.194 Goal=   None    Shift=    0.000
 RMSDP=2.38D-04 MaxDP=4.83D-03 DE=-2.32D-03 OVMax= 1.18D-02

 Cycle   6  Pass 1  IDiag  1:
 E= -155.995624716037     Delta-E=       -0.000199164027 Rises=F Damp=F
 DIIS: error= 5.71D-04 at cycle   6 NSaved=   6.
 NSaved= 6 IEnMin= 6 EnMin= -155.995624716037     IErMin= 6 ErrMin= 5.71D-04
 ErrMax= 5.71D-04  0.00D+00 EMaxC= 1.00D-01 BMatC= 5.31D-05 BMatP= 1.96D-04
 IDIUse=3 WtCom= 9.94D-01 WtEn= 5.71D-03
 Coeff-Com:  0.218D-02-0.692D-02-0.126D-01-0.395D-01 0.208D+00 0.849D+00
 Coeff-En:   0.000D+00 0.000D+00 0.000D+00 0.000D+00 0.000D+00 0.100D+01
 Coeff:      0.217D-02-0.688D-02-0.125D-01-0.393D-01 0.207D+00 0.850D+00
 Gap=     0.194 Goal=   None    Shift=    0.000
 Gap=     0.194 Goal=   None    Shift=    0.000
 RMSDP=1.41D-04 MaxDP=3.07D-03 DE=-1.99D-04 OVMax= 8.54D-03

 Cycle   7  Pass 1  IDiag  1:
 E= -155.995711257902     Delta-E=       -0.000086541865 Rises=F Damp=F
 DIIS: error= 4.57D-04 at cycle   7 NSaved=   7.
 NSaved= 7 IEnMin= 7 EnMin= -155.995711257902     IErMin= 7 ErrMin= 4.57D-04
 ErrMax= 4.57D-04  0.00D+00 EMaxC= 1.00D-01 BMatC= 2.60D-05 BMatP= 5.31D-05
 IDIUse=3 WtCom= 9.95D-01 WtEn= 4.57D-03
 Coeff-Com: -0.132D-02 0.307D-01 0.908D-02-0.776D-01-0.457D+00 0.599D-01
 Coeff-Com:  0.144D+01
 Coeff-En:   0.000D+00 0.000D+00 0.000D+00 0.000D+00 0.000D+00 0.000D+00
 Coeff-En:   0.100D+01
 Coeff:     -0.131D-02 0.306D-01 0.904D-02-0.773D-01-0.455D+00 0.596D-01
 Coeff:      0.143D+01
 Gap=     0.194 Goal=   None    Shift=    0.000
 Gap=     0.194 Goal=   None    Shift=    0.000
 RMSDP=2.29D-04 MaxDP=5.07D-03 DE=-8.65D-05 OVMax= 1.48D-02

 Cycle   8  Pass 1  IDiag  1:
 E= -155.995806579173     Delta-E=       -0.000095321271 Rises=F Damp=F
 DIIS: error= 2.51D-04 at cycle   8 NSaved=   8.
 NSaved= 8 IEnMin= 8 EnMin= -155.995806579173     IErMin= 8 ErrMin= 2.51D-04
 ErrMax= 2.51D-04  0.00D+00 EMaxC= 1.00D-01 BMatC= 7.59D-06 BMatP= 2.60D-05
 IDIUse=3 WtCom= 9.97D-01 WtEn= 2.51D-03
 Coeff-Com: -0.162D-02 0.970D-02 0.739D-02 0.577D-02-0.211D+00-0.413D+00
 Coeff-Com:  0.302D+00 0.130D+01
 Coeff-En:   0.000D+00 0.000D+00 0.000D+00 0.000D+00 0.000D+00 0.000D+00
 Coeff-En:   0.000D+00 0.100D+01
 Coeff:     -0.161D-02 0.967D-02 0.737D-02 0.576D-02-0.210D+00-0.412D+00
 Coeff:      0.302D+00 0.130D+01
 Gap=     0.194 Goal=   None    Shift=    0.000
 Gap=     0.194 Goal=   None    Shift=    0.000
 RMSDP=1.95D-04 MaxDP=4.21D-03 DE=-9.53D-05 OVMax= 1.28D-02

 Cycle   9  Pass 1  IDiag  1:
 E= -155.995841638536     Delta-E=       -0.000035059363 Rises=F Damp=F
 DIIS: error= 6.50D-05 at cycle   9 NSaved=   9.
 NSaved= 9 IEnMin= 9 EnMin= -155.995841638536     IErMin= 9 ErrMin= 6.50D-05
 ErrMax= 6.50D-05  0.00D+00 EMaxC= 1.00D-01 BMatC= 6.22D-07 BMatP= 7.59D-06
 IDIUse=1 WtCom= 1.00D+00 WtEn= 0.00D+00
 Coeff-Com:  0.168D-03-0.401D-02-0.403D-03 0.118D-01 0.434D-01-0.623D-01
 Coeff-Com: -0.203D+00 0.157D+00 0.106D+01
 Coeff:      0.168D-03-0.401D-02-0.403D-03 0.118D-01 0.434D-01-0.623D-01
 Coeff:     -0.203D+00 0.157D+00 0.106D+01
 Gap=     0.194 Goal=   None    Shift=    0.000
 Gap=     0.194 Goal=   None    Shift=    0.000
 RMSDP=5.45D-05 MaxDP=1.20D-03 DE=-3.51D-05 OVMax= 3.62D-03

 Cycle  10  Pass 1  IDiag  1:
 E= -155.995843918898     Delta-E=       -0.000002280362 Rises=F Damp=F
 DIIS: error= 1.13D-05 at cycle  10 NSaved=  10.
 NSaved=10 IEnMin=10 EnMin= -155.995843918898     IErMin=10 ErrMin= 1.13D-05
 ErrMax= 1.13D-05  0.00D+00 EMaxC= 1.00D-01 BMatC= 2.45D-08 BMatP= 6.22D-07
 IDIUse=1 WtCom= 1.00D+00 WtEn= 0.00D+00
 Coeff-Com:  0.113D-03-0.741D-03-0.488D-03-0.212D-03 0.145D-01 0.278D-01
 Coeff-Com: -0.230D-01-0.947D-01-0.121D-01 0.109D+01
 Coeff:      0.113D-03-0.741D-03-0.488D-03-0.212D-03 0.145D-01 0.278D-01
 Coeff:     -0.230D-01-0.947D-01-0.121D-01 0.109D+01
 Gap=     0.194 Goal=   None    Shift=    0.000
 Gap=     0.194 Goal=   None    Shift=    0.000
 RMSDP=8.78D-06 MaxDP=1.98D-04 DE=-2.28D-06 OVMax= 5.94D-04

 Cycle  11  Pass 1  IDiag  1:
 E= -155.995843975565     Delta-E=       -0.000000056668 Rises=F Damp=F
 DIIS: error= 2.45D-06 at cycle  11 NSaved=  11.
 NSaved=11 IEnMin=11 EnMin= -155.995843975565     IErMin=11 ErrMin= 2.45D-06
 ErrMax= 2.45D-06  0.00D+00 EMaxC= 1.00D-01 BMatC= 1.70D-09 BMatP= 2.45D-08
 IDIUse=1 WtCom= 1.00D+00 WtEn= 0.00D+00
 Coeff-Com: -0.473D-06 0.189D-03-0.245D-04-0.798D-03-0.127D-02 0.695D-02
 Coeff-Com:  0.102D-01-0.191D-01-0.627D-01 0.731D-01 0.994D+00
 Coeff:     -0.473D-06 0.189D-03-0.245D-04-0.798D-03-0.127D-02 0.695D-02
 Coeff:      0.102D-01-0.191D-01-0.627D-01 0.731D-01 0.994D+00
 Gap=     0.194 Goal=   None    Shift=    0.000
 Gap=     0.194 Goal=   None    Shift=    0.000
 RMSDP=9.31D-07 MaxDP=2.32D-05 DE=-5.67D-08 OVMax= 6.84D-05

 Cycle  12  Pass 1  IDiag  1:
 E= -155.995843976019     Delta-E=       -0.000000000454 Rises=F Damp=F
 DIIS: error= 2.93D-06 at cycle  12 NSaved=  12.
 NSaved=12 IEnMin=12 EnMin= -155.995843976019     IErMin=11 ErrMin= 2.45D-06
 ErrMax= 2.93D-06  0.00D+00 EMaxC= 1.00D-01 BMatC= 2.17D-09 BMatP= 1.70D-09
 IDIUse=1 WtCom= 1.00D+00 WtEn= 0.00D+00
 Coeff-Com: -0.861D-05 0.181D-03 0.172D-04-0.512D-03-0.188D-02 0.247D-02
 Coeff-Com:  0.835D-02-0.547D-02-0.393D-01-0.357D-01 0.654D+00 0.418D+00
 Coeff:     -0.861D-05 0.181D-03 0.172D-04-0.512D-03-0.188D-02 0.247D-02
 Coeff:      0.835D-02-0.547D-02-0.393D-01-0.357D-01 0.654D+00 0.418D+00
 Gap=     0.194 Goal=   None    Shift=    0.000
 Gap=     0.194 Goal=   None    Shift=    0.000
 RMSDP=3.27D-07 MaxDP=6.83D-06 DE=-4.54D-10 OVMax= 1.95D-05

 Cycle  13  Pass 1  IDiag  1:
 E= -155.995843976632     Delta-E=       -0.000000000613 Rises=F Damp=F
 DIIS: error= 4.09D-07 at cycle  13 NSaved=  13.
 NSaved=13 IEnMin=13 EnMin= -155.995843976632     IErMin=13 ErrMin= 4.09D-07
 ErrMax= 4.09D-07  0.00D+00 EMaxC= 1.00D-01 BMatC= 4.92D-11 BMatP= 1.70D-09
 IDIUse=1 WtCom= 1.00D+00 WtEn= 0.00D+00
 Coeff-Com: -0.176D-05 0.352D-06 0.525D-05 0.610D-04-0.108D-03-0.111D-02
 Coeff-Com: -0.473D-03 0.329D-02 0.661D-02-0.274D-01-0.761D-01 0.904D-01
 Coeff-Com:  0.100D+01
 Coeff:     -0.176D-05 0.352D-06 0.525D-05 0.610D-04-0.108D-03-0.111D-02
 Coeff:     -0.473D-03 0.329D-02 0.661D-02-0.274D-01-0.761D-01 0.904D-01
 Coeff:      0.100D+01
 Gap=     0.194 Goal=   None    Shift=    0.000
 Gap=     0.194 Goal=   None    Shift=    0.000
 RMSDP=8.85D-08 MaxDP=1.61D-06 DE=-6.13D-10 OVMax= 4.66D-06

 Cycle  14  Pass 1  IDiag  1:
 E= -155.995843976650     Delta-E=       -0.000000000018 Rises=F Damp=F
 DIIS: error= 3.37D-08 at cycle  14 NSaved=  14.
 NSaved=14 IEnMin=14 EnMin= -155.995843976650     IErMin=14 ErrMin= 3.37D-08
 ErrMax= 3.37D-08  0.00D+00 EMaxC= 1.00D-01 BMatC= 4.52D-13 BMatP= 4.92D-11
 IDIUse=1 WtCom= 1.00D+00 WtEn= 0.00D+00
 Coeff-Com:  0.119D-06-0.527D-05 0.599D-06 0.194D-04 0.370D-04-0.149D-03
 Coeff-Com: -0.263D-03 0.412D-03 0.153D-02-0.595D-03-0.271D-01-0.383D-02
 Coeff-Com:  0.991D-01 0.931D+00
 Coeff:      0.119D-06-0.527D-05 0.599D-06 0.194D-04 0.370D-04-0.149D-03
 Coeff:     -0.263D-03 0.412D-03 0.153D-02-0.595D-03-0.271D-01-0.383D-02
 Coeff:      0.991D-01 0.931D+00
 Gap=     0.194 Goal=   None    Shift=    0.000
 Gap=     0.194 Goal=   None    Shift=    0.000
 RMSDP=9.28D-09 MaxDP=9.22D-08 DE=-1.81D-11 OVMax= 2.47D-07

 SCF Done:  E(UB3LYP) =  -155.995843977     A.U. after   14 cycles
            NFock= 14  Conv=0.93D-08     -V/T= 2.0117
 <Sx>= 0.0000 <Sy>= 0.0000 <Sz>= 0.0000 <S**2>= 0.0000 S= 0.0000
 <L.S>= 0.000000000000E+00
 KE= 1.541967610337D+02 PE=-5.670416377149D+02 EE= 1.534860434002D+02
 Annihilation of the first spin contaminant:
 S**2 before annihilation     0.0000,   after     0.0000
 Leave Link  502 at Mon Jan  8 21:35:15 2024, MaxMem=   104857600 cpu:              56.0 elap:              56.1
 (Enter /home/kangmg/compchem/gaussian/g16/l601.exe)
 Copying SCF densities to generalized density rwf, IOpCl= 1 IROHF=0.

 **********************************************************************

            Population analysis using the SCF density.

 **********************************************************************

 Alpha  occ. eigenvalues --  -10.19756 -10.19729 -10.18691 -10.18690  -0.79202
 Alpha  occ. eigenvalues --   -0.72007  -0.61565  -0.52727  -0.48278  -0.43315
 Alpha  occ. eigenvalues --   -0.41439  -0.36231  -0.34759  -0.31107  -0.22612
 Alpha virt. eigenvalues --   -0.03192   0.08604   0.10219   0.11396   0.15158
 Alpha virt. eigenvalues --    0.18435   0.19393   0.20740   0.30032   0.33428
 Alpha virt. eigenvalues --    0.42042   0.47081   0.53158   0.53187   0.57781
 Alpha virt. eigenvalues --    0.59509   0.62791   0.64014   0.66826   0.67902
 Alpha virt. eigenvalues --    0.68877   0.83251   0.85333   0.87391   0.89053
 Alpha virt. eigenvalues --    0.92515   0.94535   0.97421   1.03456   1.07021
 Alpha virt. eigenvalues --    1.16608   1.22709   1.31729   1.46412   1.48837
 Alpha virt. eigenvalues --    1.51224   1.65645   1.74959   1.76702   1.87661
 Alpha virt. eigenvalues --    1.94288   1.99619   2.09241   2.13872   2.20891
 Alpha virt. eigenvalues --    2.21856   2.27324   2.50364   2.52207   2.53318
 Alpha virt. eigenvalues --    2.61455   2.83964   3.02984   4.05141   4.13881
 Alpha virt. eigenvalues --    4.20056   4.46512
  Beta  occ. eigenvalues --  -10.19756 -10.19729 -10.18691 -10.18690  -0.79202
  Beta  occ. eigenvalues --   -0.72007  -0.61565  -0.52727  -0.48278  -0.43315
  Beta  occ. eigenvalues --   -0.41439  -0.36231  -0.34759  -0.31107  -0.22612
  Beta virt. eigenvalues --   -0.03192   0.08604   0.10219   0.11396   0.15158
  Beta virt. eigenvalues --    0.18435   0.19393   0.20740   0.30032   0.33428
  Beta virt. eigenvalues --    0.42042   0.47081   0.53158   0.53187   0.57781
  Beta virt. eigenvalues --    0.59509   0.62791   0.64014   0.66826   0.67902
  Beta virt. eigenvalues --    0.68877   0.83251   0.85333   0.87391   0.89053
  Beta virt. eigenvalues --    0.92515   0.94535   0.97421   1.03456   1.07021
  Beta virt. eigenvalues --    1.16608   1.22709   1.31729   1.46412   1.48837
  Beta virt. eigenvalues --    1.51224   1.65645   1.74959   1.76702   1.87661
  Beta virt. eigenvalues --    1.94288   1.99619   2.09241   2.13872   2.20891
  Beta virt. eigenvalues --    2.21856   2.27324   2.50364   2.52207   2.53318
  Beta virt. eigenvalues --    2.61455   2.83964   3.02984   4.05141   4.13881
  Beta virt. eigenvalues --    4.20056   4.46512
          Condensed to atoms (all electrons):
               1          2          3          4          5          6
     1  C    4.776260   0.647599  -0.030891  -0.021675   0.362763  -0.038053
     2  C    0.647599   5.056024   0.364907   0.364291  -0.053738  -0.018693
     3  H   -0.030891   0.364907   0.563979  -0.042524   0.005474   0.004826
     4  H   -0.021675   0.364291  -0.042524   0.558387  -0.007279   0.000087
     5  H    0.362763  -0.053738   0.005474  -0.007279   0.605594   0.005517
     6  C   -0.038053  -0.018693   0.004826   0.000087   0.005517   5.056026
     7  C    0.437771  -0.038052  -0.011173   0.004070  -0.042624   0.647597
     8  H   -0.042624   0.005517   0.000031  -0.000145  -0.005245  -0.053737
     9  H   -0.011172   0.004826   0.003186  -0.000097   0.000031   0.364908
    10  H    0.004070   0.000087  -0.000097   0.000001  -0.000145   0.364290
               7          8          9         10
     1  C    0.437771  -0.042624  -0.011172   0.004070
     2  C   -0.038052   0.005517   0.004826   0.000087
     3  H   -0.011173   0.000031   0.003186  -0.000097
     4  H    0.004070  -0.000145  -0.000097   0.000001
     5  H   -0.042624  -0.005245   0.000031  -0.000145
     6  C    0.647597  -0.053737   0.364908   0.364290
     7  C    4.776264   0.362762  -0.030891  -0.021675
     8  H    0.362762   0.605595   0.005474  -0.007279
     9  H   -0.030891   0.005474   0.563978  -0.042524
    10  H   -0.021675  -0.007279  -0.042524   0.558388
          Atomic-Atomic Spin Densities.
               1          2          3          4          5          6
     1  C    0.000000  -0.000000   0.000000   0.000000   0.000000  -0.000000
     2  C   -0.000000  -0.000000  -0.000000   0.000000  -0.000000   0.000000
     3  H    0.000000  -0.000000   0.000000   0.000000   0.000000   0.000000
     4  H    0.000000   0.000000   0.000000  -0.000000   0.000000   0.000000
     5  H    0.000000  -0.000000   0.000000   0.000000  -0.000000  -0.000000
     6  C   -0.000000   0.000000   0.000000   0.000000  -0.000000   0.000000
     7  C   -0.000000   0.000000  -0.000000  -0.000000   0.000000   0.000000
     8  H   -0.000000   0.000000  -0.000000   0.000000   0.000000   0.000000
     9  H    0.000000  -0.000000  -0.000000   0.000000   0.000000   0.000000
    10  H    0.000000  -0.000000  -0.000000  -0.000000  -0.000000  -0.000000
               7          8          9         10
     1  C   -0.000000  -0.000000   0.000000   0.000000
     2  C    0.000000   0.000000  -0.000000  -0.000000
     3  H   -0.000000  -0.000000  -0.000000  -0.000000
     4  H   -0.000000   0.000000   0.000000  -0.000000
     5  H    0.000000   0.000000   0.000000  -0.000000
     6  C    0.000000   0.000000   0.000000  -0.000000
     7  C   -0.000000  -0.000000  -0.000000  -0.000000
     8  H   -0.000000   0.000000  -0.000000  -0.000000
     9  H   -0.000000  -0.000000  -0.000000  -0.000000
    10  H   -0.000000  -0.000000  -0.000000   0.000000
 Mulliken charges and spin densities:
               1          2
     1  C   -0.084049   0.000000
     2  C   -0.332768  -0.000000
     3  H    0.142281   0.000000
     4  H    0.144885  -0.000000
     5  H    0.129652  -0.000000
     6  C   -0.332768   0.000000
     7  C   -0.084050  -0.000000
     8  H    0.129652   0.000000
     9  H    0.142281  -0.000000
    10  H    0.144884   0.000000
 Sum of Mulliken charges =  -0.00000  -0.00000
 Mulliken charges and spin densities with hydrogens summed into heavy atoms:
               1          2
     1  C    0.045603   0.000000
     2  C   -0.045602  -0.000000
     6  C   -0.045603   0.000000
     7  C    0.045602  -0.000000
 Electronic spatial extent (au):  <R**2>=            312.9821
 Charge=             -0.0000 electrons
 Dipole moment (field-independent basis, Debye):
    X=             -0.0071    Y=              0.0480    Z=              0.0653  Tot=              0.0813
 Quadrupole moment (field-independent basis, Debye-Ang):
   XX=            -27.9796   YY=            -22.6360   ZZ=            -22.5706
   XY=             -0.2425   XZ=             -0.4238   YZ=              0.1214
 Traceless Quadrupole moment (field-independent basis, Debye-Ang):
   XX=             -3.5842   YY=              1.7594   ZZ=              1.8248
   XY=             -0.2425   XZ=             -0.4238   YZ=              0.1214
 Octapole moment (field-independent basis, Debye-Ang**2):
  XXX=             -0.1373  YYY=              0.6590  ZZZ=              0.7770  XYY=              0.5947
  XXY=              0.2174  XXZ=              0.4879  XZZ=             -0.6418  YZZ=              0.3726
  YYZ=              0.4325  XYZ=              0.1904
 Hexadecapole moment (field-independent basis, Debye-Ang**3):
 XXXX=            -31.0170 YYYY=           -211.5472 ZZZZ=           -163.0875 XXXY=              7.4845
 XXXZ=             -1.1789 YYYX=              5.7073 YYYZ=             38.8579 ZZZX=             -1.8976
 ZZZY=             42.3703 XXYY=            -46.9661 XXZZ=            -36.5602 YYZZ=            -59.0716
 XXYZ=             17.5573 YYXZ=             -0.5858 ZZXY=              2.2778
 N-N= 1.033629893044D+02 E-N=-5.670416366670D+02  KE= 1.541967610337D+02
                          Isotropic Fermi Contact Couplings
        Atom                 a.u.       MegaHertz       Gauss      10(-4) cm-1
     1  C(13)              0.00000       0.00001       0.00000       0.00000
     2  C(13)              0.00000       0.00001       0.00000       0.00000
     3  H(1)               0.00000       0.00004       0.00002       0.00001
     4  H(1)              -0.00000      -0.00003      -0.00001      -0.00001
     5  H(1)              -0.00000      -0.00004      -0.00001      -0.00001
     6  C(13)             -0.00000      -0.00001      -0.00000      -0.00000
     7  C(13)             -0.00000      -0.00001      -0.00000      -0.00000
     8  H(1)               0.00000       0.00004       0.00001       0.00001
     9  H(1)              -0.00000      -0.00004      -0.00002      -0.00001
    10  H(1)               0.00000       0.00003       0.00001       0.00001
 --------------------------------------------------------
       Center         ----  Spin Dipole Couplings  ----
                      3XX-RR        3YY-RR        3ZZ-RR
 --------------------------------------------------------
     1   Atom        0.000000     -0.000000     -0.000000
     2   Atom       -0.000000      0.000000      0.000000
     3   Atom        0.000000      0.000000     -0.000000
     4   Atom       -0.000000      0.000000     -0.000000
     5   Atom       -0.000000     -0.000000      0.000000
     6   Atom        0.000000     -0.000000     -0.000000
     7   Atom       -0.000000      0.000000      0.000000
     8   Atom        0.000000     -0.000000      0.000000
     9   Atom       -0.000000      0.000000     -0.000000
    10   Atom        0.000000     -0.000000     -0.000000
 --------------------------------------------------------
                        XY            XZ            YZ
 --------------------------------------------------------
     1   Atom        0.000000      0.000000      0.000000
     2   Atom       -0.000000     -0.000000     -0.000000
     3   Atom       -0.000000      0.000000     -0.000000
     4   Atom       -0.000000     -0.000000     -0.000000
     5   Atom        0.000000     -0.000000      0.000000
     6   Atom        0.000000     -0.000000      0.000000
     7   Atom        0.000000      0.000000     -0.000000
     8   Atom       -0.000000     -0.000000     -0.000000
     9   Atom        0.000000      0.000000      0.000000
    10   Atom       -0.000000      0.000000      0.000000
 --------------------------------------------------------


 ---------------------------------------------------------------------------------
              Anisotropic Spin Dipole Couplings in Principal Axis System
 ---------------------------------------------------------------------------------

       Atom             a.u.   MegaHertz   Gauss  10(-4) cm-1        Axes

              Baa    -0.0000    -0.000    -0.000    -0.000 -0.1146  0.9932  0.0189
     1 C(13)  Bbb    -0.0000    -0.000    -0.000    -0.000 -0.1671 -0.0380  0.9852
              Bcc     0.0000     0.000     0.000     0.000  0.9793  0.1098  0.1703
 
              Baa    -0.0000    -0.000    -0.000    -0.000  0.9825  0.1171  0.1445
     2 C(13)  Bbb     0.0000     0.000     0.000     0.000 -0.1772  0.3520  0.9191
              Bcc     0.0000     0.000     0.000     0.000 -0.0567  0.9286 -0.3666
 
              Baa    -0.0000    -0.000    -0.000    -0.000 -0.1544  0.1478  0.9769
     3 H(1)   Bbb     0.0000     0.000     0.000     0.000  0.9848  0.1026  0.1402
              Bcc     0.0000     0.000     0.000     0.000 -0.0795  0.9837 -0.1614
 
              Baa    -0.0000    -0.000    -0.000    -0.000  0.9749  0.0738  0.2100
     4 H(1)   Bbb    -0.0000    -0.000    -0.000    -0.000 -0.2186  0.1401  0.9657
              Bcc     0.0000     0.000     0.000     0.000 -0.0419  0.9874 -0.1527
 
              Baa    -0.0000    -0.000    -0.000    -0.000 -0.0885  0.9923 -0.0866
     5 H(1)   Bbb    -0.0000    -0.000    -0.000    -0.000  0.9755  0.1040  0.1937
              Bcc     0.0000     0.000     0.000     0.000 -0.2012  0.0673  0.9772
 
              Baa    -0.0000    -0.000    -0.000    -0.000  0.0116 -0.6227  0.7824
     6 C(13)  Bbb    -0.0000    -0.000    -0.000    -0.000  0.0097  0.7825  0.6226
              Bcc     0.0000     0.000     0.000     0.000  0.9999 -0.0004 -0.0151
 
              Baa    -0.0000    -0.000    -0.000    -0.000  0.9995 -0.0274 -0.0160
     7 C(13)  Bbb     0.0000     0.000     0.000     0.000  0.0307  0.9622  0.2707
              Bcc     0.0000     0.000     0.000     0.000  0.0080 -0.2710  0.9625
 
              Baa    -0.0000    -0.000    -0.000    -0.000  0.0545  0.9262  0.3730
     8 H(1)   Bbb     0.0000     0.000     0.000     0.000  0.9985 -0.0516 -0.0178
              Bcc     0.0000     0.000     0.000     0.000 -0.0028 -0.3734  0.9277
 
              Baa    -0.0000    -0.000    -0.000    -0.000 -0.0004 -0.4426  0.8967
     9 H(1)   Bbb    -0.0000    -0.000    -0.000    -0.000  1.0000 -0.0004  0.0002
              Bcc     0.0000     0.000     0.000     0.000  0.0002  0.8967  0.4426
 
              Baa    -0.0000    -0.000    -0.000    -0.000 -0.0390 -0.4402  0.8970
    10 H(1)   Bbb     0.0000     0.000     0.000     0.000  0.0658  0.8947  0.4419
              Bcc     0.0000     0.000     0.000     0.000  0.9971 -0.0762  0.0060
 

 ---------------------------------------------------------------------------------

 No NMR shielding tensors so no spin-rotation constants.
 Leave Link  601 at Mon Jan  8 21:35:15 2024, MaxMem=   104857600 cpu:               0.2 elap:               0.2
 (Enter /home/kangmg/compchem/gaussian/g16/l608.exe)
 IExCor=  402 DFT=T Ex+Corr=B3LYP ExCW=0 ScaHFX=  0.200000
 ScaDFX=  0.800000  0.720000  1.000000  0.810000 ScalE2=  1.000000  1.000000
 IRadAn=      5 IRanWt=     -1 IRanGd=            0 ICorTp=0 IEmpDi=  4
 A total of   1 models will be applied.

 Results using SCF density:
 FoFJK:  IHMeth= 0 ICntrl=     500 DoSepK=F KAlg= 0 I1Cent=           0 FoldK=F
 IRaf=         0 NMat=       2 IRICut=       1 DoRegI=T DoRafI=F ISym2E= 0 IDoP0=0 IntGTp=1.
 FoFCou: FMM=F IPFlag=           0 FMFlag=           0 FMFlg1=           0
         NFxFlg=           0 DoJE=F BraDBF=F KetDBF=F FulRan=T
         wScrn=  0.000000 ICntrl=       500 IOpCl=  1 I1Cent=           0 NGrid=           0
         NMat0=    2 NMatS0=      2 NMatT0=    0 NMatD0=    2 NMtDS0=    0 NMtDT0=    0
 Symmetry not used in FoFCou.
 ET=  154.196761 EV= -567.041637 EJ=  177.310272 EK=  -22.726943 ENuc=  103.362989

 A=0 I=   1 IExCor=  402 IRadAn=       5 ScaHFX=  0.200000
            ScaDFX=  0.800000  0.720000  1.000000  0.810000
 HFx=  0.000000  0.000000  1.000000  0.000000  0.000000
 DFx=  0.000000  0.000000  1.000000  0.000000  0.000000
 DFc=  0.000000  0.000000  1.000000  0.000000  0.000000
            ENTVJ= -132.171614 Ex=  -22.580529 Ec=   -1.243701 ETotM2e= -328.7607272198  ETot= -155.9958439766
 Leave Link  608 at Mon Jan  8 21:35:17 2024, MaxMem=   104857600 cpu:               2.3 elap:               2.3
 (Enter /home/kangmg/compchem/gaussian/g16/l9999.exe)

 Test job not archived.
 1\1\GINC-KANGMG-22\SP\UB3LYP\6-31G(d)\C4H6\KANGMG\08-Jan-2024\0\\#p b3
 lyp/6-31G* em=gd3bj ExtraLinks=L608 nosymm guess=read\\opted geometry\
 \0,1\C,0,-0.04905811,-0.26851168,0.89379083\C,0,0.14091234,-1.55546913
 ,0.50319023\H,0,0.34663169,-1.83205244,-0.53495581\H,0,0.10822036,-2.3
 7936498,1.21941341\H,0,-0.23415206,-0.06852765,1.95593646\C,0,-0.04905
 811,0.93320051,-1.34880531\C,0,-0.04905811,0.93320051,0.00947319\H,0,-
 0.03591138,1.89808418,0.53027436\H,0,-0.07798974,0.01213844,-1.9381887
 5\H,0,-0.03223856,1.86463239,-1.91889566\\Version=ES64L-G16RevA.03\HF=
 -155.995844\S2=0.\S2-1=0.\S2A=0.\RMSD=9.278e-09\Dipole=-0.0027891,0.01
 88935,0.0256771\Quadrupole=-2.6647491,1.308063,1.3566861,-0.1802935,-0
 .3150844,0.0902665\PG=C01 [X(C4H6)]\\@


 GOD DOES NOT PLAY WITH DICE.
               -- A. EINSTEIN
 Job cpu time:       0 days  0 hours  0 minutes 59.5 seconds.
 Elapsed time:       0 days  0 hours  0 minutes 59.5 seconds.
 File lengths (MBytes):  RWF=     10 Int=      0 D2E=      0 Chk=      1 Scr=      1
 Normal termination of Gaussian 16 at Mon Jan  8 21:35:17 2024.
