 Entering Gaussian System, Link 0=g16
 Initial command:
 /home/kangmg/compchem/gaussian/g16/l1.exe "/home/kangmg/compchem/gaussian/scratch/Gau-32466.inp" -scrdir="/home/kangmg/compchem/gaussian/scratch/"
 Entering Link 1 = /home/kangmg/compchem/gaussian/g16/l1.exe PID=     32468.
  
 Copyright (c) 1988,1990,1992,1993,1995,1998,2003,2009,2016,
            Gaussian, Inc.  All Rights Reserved.
  
 This is part of the Gaussian(R) 16 program.  It is based on
 the Gaussian(R) 09 system (copyright 2009, Gaussian, Inc.),
 the Gaussian(R) 03 system (copyright 2003, Gaussian, Inc.),
 the Gaussian(R) 98 system (copyright 1998, Gaussian, Inc.),
 the Gaussian(R) 94 system (copyright 1995, Gaussian, Inc.),
 the Gaussian 92(TM) system (copyright 1992, Gaussian, Inc.),
 the Gaussian 90(TM) system (copyright 1990, Gaussian, Inc.),
 the Gaussian 88(TM) system (copyright 1988, Gaussian, Inc.),
 the Gaussian 86(TM) system (copyright 1986, Carnegie Mellon
 University), and the Gaussian 82(TM) system (copyright 1983,
 Carnegie Mellon University). Gaussian is a federally registered
 trademark of Gaussian, Inc.
  
 This software contains proprietary and confidential information,
 including trade secrets, belonging to Gaussian, Inc.
  
 This software is provided under written license and may be
 used, copied, transmitted, or stored only in accord with that
 written license.
  
 The following legend is applicable only to US Government
 contracts under FAR:
  
                    RESTRICTED RIGHTS LEGEND
  
 Use, reproduction and disclosure by the US Government is
 subject to restrictions as set forth in subparagraphs (a)
 and (c) of the Commercial Computer Software - Restricted
 Rights clause in FAR 52.227-19.
  
 Gaussian, Inc.
 340 Quinnipiac St., Bldg. 40, Wallingford CT 06492
  
  
 ---------------------------------------------------------------
 Warning -- This program may not be used in any manner that
 competes with the business of Gaussian, Inc. or will provide
 assistance to any competitor of Gaussian, Inc.  The licensee
 of this program is prohibited from giving any competitor of
 Gaussian, Inc. access to this program.  By using this program,
 the user acknowledges that Gaussian, Inc. is engaged in the
 business of creating and licensing software in the field of
 computational chemistry and represents and warrants to the
 licensee that it is not a competitor of Gaussian, Inc. and that
 it will not use this program in any manner prohibited above.
 ---------------------------------------------------------------
  

 Cite this work as:
 Gaussian 16, Revision A.03,
 M. J. Frisch, G. W. Trucks, H. B. Schlegel, G. E. Scuseria, 
 M. A. Robb, J. R. Cheeseman, G. Scalmani, V. Barone, 
 G. A. Petersson, H. Nakatsuji, X. Li, M. Caricato, A. V. Marenich, 
 J. Bloino, B. G. Janesko, R. Gomperts, B. Mennucci, H. P. Hratchian, 
 J. V. Ortiz, A. F. Izmaylov, J. L. Sonnenberg, D. Williams-Young, 
 F. Ding, F. Lipparini, F. Egidi, J. Goings, B. Peng, A. Petrone, 
 T. Henderson, D. Ranasinghe, V. G. Zakrzewski, J. Gao, N. Rega, 
 G. Zheng, W. Liang, M. Hada, M. Ehara, K. Toyota, R. Fukuda, 
 J. Hasegawa, M. Ishida, T. Nakajima, Y. Honda, O. Kitao, H. Nakai, 
 T. Vreven, K. Throssell, J. A. Montgomery, Jr., J. E. Peralta, 
 F. Ogliaro, M. J. Bearpark, J. J. Heyd, E. N. Brothers, K. N. Kudin, 
 V. N. Staroverov, T. A. Keith, R. Kobayashi, J. Normand, 
 K. Raghavachari, A. P. Rendell, J. C. Burant, S. S. Iyengar, 
 J. Tomasi, M. Cossi, J. M. Millam, M. Klene, C. Adamo, R. Cammi, 
 J. W. Ochterski, R. L. Martin, K. Morokuma, O. Farkas, 
 J. B. Foresman, and D. J. Fox, Gaussian, Inc., Wallingford CT, 2016.
 
 ******************************************
 Gaussian 16:  ES64L-G16RevA.03 25-Dec-2016
                 8-Jan-2024 
 ******************************************
 %chk=2_fragment1.chk
 -----------------------------------------------
 #p b3lyp/6-31G* em=gd3bj ExtraLinks=L608 nosymm
 -----------------------------------------------
 1/38=1,172=1/1;
 2/12=2,15=1,17=6,18=5,40=1/2;
 3/5=1,6=6,7=1,11=2,25=1,30=1,74=-5,124=41/1,2,3;
 4//1;
 5/5=2,38=5/2;
 6/7=2,8=2,9=2,10=2,28=1/1,8;
 99/5=1,9=1/99;
 Leave Link    1 at Mon Jan  8 21:33:48 2024, MaxMem=           0 cpu:               0.0 elap:               0.0
 (Enter /home/kangmg/compchem/gaussian/g16/l101.exe)
 --------------
 opted geometry
 --------------
 Symbolic Z-matrix:
 Charge =  0 Multiplicity = 2
 C                    -0.04906  -0.26851   0.89379 
 C                     0.14091  -1.55547   0.50319 
 H                     0.34663  -1.83205  -0.53496 
 H                     0.10822  -2.37936   1.21941 
 H                    -0.23415  -0.06853   1.95594 
 
 ITRead=  0  0  0  0  0
 MicOpt= -1 -1 -1 -1 -1
 NAtoms=      5 NQM=        5 NQMF=       0 NMMI=      0 NMMIF=      0
                NMic=       0 NMicF=      0.
                    Isotopes and Nuclear Properties:
 (Nuclear quadrupole moments (NQMom) in fm**2, nuclear magnetic moments (NMagM)
  in nuclear magnetons)

  Atom         1           2           3           4           5
 IAtWgt=          12          12           1           1           1
 AtmWgt=  12.0000000  12.0000000   1.0078250   1.0078250   1.0078250
 NucSpn=           0           0           1           1           1
 AtZEff=  -0.0000000  -0.0000000  -0.0000000  -0.0000000  -0.0000000
 NQMom=    0.0000000   0.0000000   0.0000000   0.0000000   0.0000000
 NMagM=    0.0000000   0.0000000   2.7928460   2.7928460   2.7928460
 AtZNuc=   6.0000000   6.0000000   1.0000000   1.0000000   1.0000000
 Leave Link  101 at Mon Jan  8 21:33:48 2024, MaxMem=   104857600 cpu:               0.2 elap:               0.2
 (Enter /home/kangmg/compchem/gaussian/g16/l202.exe)
                          Input orientation:                          
 ---------------------------------------------------------------------
 Center     Atomic      Atomic             Coordinates (Angstroms)
 Number     Number       Type             X           Y           Z
 ---------------------------------------------------------------------
      1          6           0       -0.049058   -0.268512    0.893791
      2          6           0        0.140912   -1.555469    0.503190
      3          1           0        0.346632   -1.832052   -0.534956
      4          1           0        0.108220   -2.379365    1.219413
      5          1           0       -0.234152   -0.068528    1.955936
 ---------------------------------------------------------------------
                    Distance matrix (angstroms):
                    1          2          3          4          5
     1  C    0.000000
     2  C    1.358277   0.000000
     3  H    2.154657   1.093877   0.000000
     4  H    2.141604   1.092176   1.853160   0.000000
     5  H    1.096543   2.112378   3.106746   2.449419   0.000000
 Symmetry turned off by external request.
 Stoichiometry    C2H3(2)
 Framework group  C1[X(C2H3)]
 Deg. of freedom     9
 Full point group                 C1      NOp   1
 Rotational constants (GHZ):         200.5678357          32.0601380          27.6421061
 Leave Link  202 at Mon Jan  8 21:33:48 2024, MaxMem=   104857600 cpu:               0.0 elap:               0.0
 (Enter /home/kangmg/compchem/gaussian/g16/l301.exe)
 Standard basis: 6-31G(d) (6D, 7F)
 Ernie: Thresh=  0.10000D-02 Tol=  0.10000D-05 Strict=F.
    36 basis functions,    68 primitive gaussians,    36 cartesian basis functions
     8 alpha electrons        7 beta electrons
       nuclear repulsion energy        27.8617442255 Hartrees.
 IExCor=  402 DFT=T Ex+Corr=B3LYP ExCW=0 ScaHFX=  0.200000
 ScaDFX=  0.800000  0.720000  1.000000  0.810000 ScalE2=  1.000000  1.000000
 IRadAn=      5 IRanWt=     -1 IRanGd=            0 ICorTp=0 IEmpDi=141
 NAtoms=    5 NActive=    5 NUniq=    5 SFac= 1.00D+00 NAtFMM=   60 NAOKFM=F Big=F
 Integral buffers will be    131072 words long.
 Raffenetti 2 integral format.
 Two-electron integral symmetry is turned off.
 R6Disp:  Grimme-D3(BJ) Dispersion energy=       -0.0031056673 Hartrees.
 Nuclear repulsion after empirical dispersion term =       27.8586385582 Hartrees.
 Leave Link  301 at Mon Jan  8 21:33:48 2024, MaxMem=   104857600 cpu:               0.1 elap:               0.1
 (Enter /home/kangmg/compchem/gaussian/g16/l302.exe)
 NPDir=0 NMtPBC=     1 NCelOv=     1 NCel=       1 NClECP=     1 NCelD=      1
         NCelK=      1 NCelE2=     1 NClLst=     1 CellRange=     0.0.
 One-electron integrals computed using PRISM.
 NBasis=    36 RedAO= T EigKep=  8.31D-03  NBF=    36
 NBsUse=    36 1.00D-06 EigRej= -1.00D+00 NBFU=    36
 Precomputing XC quadrature grid using
 IXCGrd= 4 IRadAn=           5 IRanWt=          -1 IRanGd=           0 AccXCQ= 0.00D+00.
 Generated NRdTot=       0 NPtTot=           0 NUsed=           0 NTot=          32
 NSgBfM=    36    36    36    36    36 MxSgAt=     5 MxSgA2=     5.
 Leave Link  302 at Mon Jan  8 21:33:49 2024, MaxMem=   104857600 cpu:               0.2 elap:               0.2
 (Enter /home/kangmg/compchem/gaussian/g16/l303.exe)
 DipDrv:  MaxL=1.
 Leave Link  303 at Mon Jan  8 21:33:49 2024, MaxMem=   104857600 cpu:               0.0 elap:               0.0
 (Enter /home/kangmg/compchem/gaussian/g16/l401.exe)
 ExpMin= 1.61D-01 ExpMax= 3.05D+03 ExpMxC= 4.57D+02 IAcc=3 IRadAn=         5 AccDes= 0.00D+00
 Harris functional with IExCor=  402 and IRadAn=       5 diagonalized for initial guess.
 HarFok:  IExCor=  402 AccDes= 0.00D+00 IRadAn=         5 IDoV= 1 UseB2=F ITyADJ=14
 ICtDFT=  3500011 ScaDFX=  1.000000  1.000000  1.000000  1.000000
 FoFCou: FMM=F IPFlag=           0 FMFlag=      100000 FMFlg1=           0
         NFxFlg=           0 DoJE=T BraDBF=F KetDBF=T FulRan=T
         wScrn=  0.000000 ICntrl=       500 IOpCl=  0 I1Cent=   200000004 NGrid=           0
         NMat0=    1 NMatS0=      1 NMatT0=    0 NMatD0=    1 NMtDS0=    0 NMtDT0=    0
 Symmetry not used in FoFCou.
 Harris En= -77.8889500132357    
 JPrj=0 DoOrth=F DoCkMO=F.
 Initial guess <Sx>= 0.0000 <Sy>= 0.0000 <Sz>= 0.5000 <S**2>= 0.7500 S= 0.5000
 Leave Link  401 at Mon Jan  8 21:33:49 2024, MaxMem=   104857600 cpu:               0.7 elap:               0.7
 (Enter /home/kangmg/compchem/gaussian/g16/l502.exe)
 Keep R1 and R2 ints in memory in canonical form, NReq=1307300.
 FoFCou: FMM=F IPFlag=           0 FMFlag=           0 FMFlg1=           0
         NFxFlg=           0 DoJE=F BraDBF=F KetDBF=F FulRan=T
         wScrn=  0.000000 ICntrl=       600 IOpCl=  0 I1Cent=           0 NGrid=           0
         NMat0=    1 NMatS0=    666 NMatT0=    0 NMatD0=    1 NMtDS0=    0 NMtDT0=    0
 Symmetry not used in FoFCou.
 Two-electron integral symmetry not used.
 UHF open shell SCF:
 Using DIIS extrapolation, IDIIS=  1040.
 NGot=   104857600 LenX=   104410073 LenY=   104408336
 Requested convergence on RMS density matrix=1.00D-08 within 128 cycles.
 Requested convergence on MAX density matrix=1.00D-06.
 Requested convergence on             energy=1.00D-06.
 No special actions if energy rises.
 Integral accuracy reduced to 1.0D-05 until final iterations.

 Cycle   1  Pass 0  IDiag  1:
 E= -77.8305507615812    
 DIIS: error= 4.54D-02 at cycle   1 NSaved=   1.
 NSaved= 1 IEnMin= 1 EnMin= -77.8305507615812     IErMin= 1 ErrMin= 4.54D-02
 ErrMax= 4.54D-02  0.00D+00 EMaxC= 1.00D-01 BMatC= 2.28D-01 BMatP= 2.28D-01
 IDIUse=3 WtCom= 5.46D-01 WtEn= 4.54D-01
 Coeff-Com:  0.100D+01
 Coeff-En:   0.100D+01
 Coeff:      0.100D+01
 Gap=     0.307 Goal=   None    Shift=    0.000
 Gap=     0.118 Goal=   None    Shift=    0.000
 GapD=    0.118 DampG=1.000 DampE=0.500 DampFc=0.5000 IDamp=-1.
 Damping current iteration by 5.00D-01
 RMSDP=1.28D-02 MaxDP=1.36D-01              OVMax= 1.98D-01

 Cycle   2  Pass 0  IDiag  1:
 E= -77.8597906771676     Delta-E=       -0.029239915586 Rises=F Damp=T
 DIIS: error= 1.25D-02 at cycle   2 NSaved=   2.
 NSaved= 2 IEnMin= 2 EnMin= -77.8597906771676     IErMin= 2 ErrMin= 1.25D-02
 ErrMax= 1.25D-02  0.00D+00 EMaxC= 1.00D-01 BMatC= 1.47D-02 BMatP= 2.28D-01
 IDIUse=3 WtCom= 8.75D-01 WtEn= 1.25D-01
 Coeff-Com:  0.633D-01 0.937D+00
 Coeff-En:   0.872D-01 0.913D+00
 Coeff:      0.663D-01 0.934D+00
 Gap=     0.269 Goal=   None    Shift=    0.000
 Gap=     0.169 Goal=   None    Shift=    0.000
 RMSDP=2.94D-03 MaxDP=3.87D-02 DE=-2.92D-02 OVMax= 1.48D-01

 Cycle   3  Pass 0  IDiag  1:
 E= -77.8908350982002     Delta-E=       -0.031044421033 Rises=F Damp=F
 DIIS: error= 1.85D-02 at cycle   3 NSaved=   3.
 NSaved= 3 IEnMin= 3 EnMin= -77.8908350982002     IErMin= 2 ErrMin= 1.25D-02
 ErrMax= 1.85D-02  0.00D+00 EMaxC= 1.00D-01 BMatC= 1.82D-02 BMatP= 1.47D-02
 IDIUse=2 WtCom= 0.00D+00 WtEn= 1.00D+00
 Coeff-En:   0.000D+00 0.000D+00 0.100D+01
 Coeff:      0.000D+00 0.000D+00 0.100D+01
 Gap=     0.289 Goal=   None    Shift=    0.000
 Gap=     0.145 Goal=   None    Shift=    0.000
 RMSDP=4.64D-03 MaxDP=6.81D-02 DE=-3.10D-02 OVMax= 1.35D-01

 Cycle   4  Pass 0  IDiag  1:
 E= -77.8756298219854     Delta-E=        0.015205276215 Rises=F Damp=F
 DIIS: error= 3.51D-02 at cycle   4 NSaved=   4.
 NSaved= 4 IEnMin= 3 EnMin= -77.8908350982002     IErMin= 2 ErrMin= 1.25D-02
 ErrMax= 3.51D-02  0.00D+00 EMaxC= 1.00D-01 BMatC= 7.40D-02 BMatP= 1.47D-02
 IDIUse=2 WtCom= 0.00D+00 WtEn= 1.00D+00
 Coeff-En:   0.000D+00 0.000D+00 0.748D+00 0.252D+00
 Coeff:      0.000D+00 0.000D+00 0.748D+00 0.252D+00
 Gap=     0.276 Goal=   None    Shift=    0.000
 Gap=     0.163 Goal=   None    Shift=    0.000
 RMSDP=2.28D-03 MaxDP=3.12D-02 DE= 1.52D-02 OVMax= 6.40D-02

 Cycle   5  Pass 0  IDiag  1:
 E= -77.8951051842445     Delta-E=       -0.019475362259 Rises=F Damp=F
 DIIS: error= 8.76D-03 at cycle   5 NSaved=   5.
 NSaved= 5 IEnMin= 5 EnMin= -77.8951051842445     IErMin= 5 ErrMin= 8.76D-03
 ErrMax= 8.76D-03  0.00D+00 EMaxC= 1.00D-01 BMatC= 4.03D-03 BMatP= 1.47D-02
 IDIUse=3 WtCom= 9.12D-01 WtEn= 8.76D-02
 Coeff-Com: -0.144D-01 0.194D-01 0.992D-01-0.223D+00 0.112D+01
 Coeff-En:   0.000D+00 0.000D+00 0.205D+00 0.000D+00 0.795D+00
 Coeff:     -0.131D-01 0.177D-01 0.109D+00-0.204D+00 0.109D+01
 Gap=     0.271 Goal=   None    Shift=    0.000
 Gap=     0.170 Goal=   None    Shift=    0.000
 RMSDP=7.88D-04 MaxDP=1.21D-02 DE=-1.95D-02 OVMax= 2.62D-02

 Cycle   6  Pass 0  IDiag  1:
 E= -77.8962864676626     Delta-E=       -0.001181283418 Rises=F Damp=F
 DIIS: error= 1.16D-03 at cycle   6 NSaved=   6.
 NSaved= 6 IEnMin= 6 EnMin= -77.8962864676626     IErMin= 6 ErrMin= 1.16D-03
 ErrMax= 1.16D-03  0.00D+00 EMaxC= 1.00D-01 BMatC= 2.79D-05 BMatP= 4.03D-03
 IDIUse=3 WtCom= 9.88D-01 WtEn= 1.16D-02
 Coeff-Com:  0.171D-02-0.817D-03-0.154D+00 0.469D-01-0.435D+00 0.154D+01
 Coeff-En:   0.000D+00 0.000D+00 0.000D+00 0.000D+00 0.000D+00 0.100D+01
 Coeff:      0.169D-02-0.808D-03-0.153D+00 0.463D-01-0.430D+00 0.154D+01
 Gap=     0.271 Goal=   None    Shift=    0.000
 Gap=     0.171 Goal=   None    Shift=    0.000
 RMSDP=2.54D-04 MaxDP=4.48D-03 DE=-1.18D-03 OVMax= 1.01D-02

 Cycle   7  Pass 0  IDiag  1:
 E= -77.8963323791142     Delta-E=       -0.000045911452 Rises=F Damp=F
 DIIS: error= 3.15D-04 at cycle   7 NSaved=   7.
 NSaved= 7 IEnMin= 7 EnMin= -77.8963323791142     IErMin= 7 ErrMin= 3.15D-04
 ErrMax= 3.15D-04  0.00D+00 EMaxC= 1.00D-01 BMatC= 3.13D-06 BMatP= 2.79D-05
 IDIUse=3 WtCom= 9.97D-01 WtEn= 3.15D-03
 Coeff-Com:  0.331D-02-0.236D-02-0.134D-01 0.482D-01-0.243D+00-0.270D+00
 Coeff-Com:  0.148D+01
 Coeff-En:   0.000D+00 0.000D+00 0.000D+00 0.000D+00 0.000D+00 0.000D+00
 Coeff-En:   0.100D+01
 Coeff:      0.330D-02-0.235D-02-0.133D-01 0.481D-01-0.242D+00-0.270D+00
 Coeff:      0.148D+01
 Gap=     0.272 Goal=   None    Shift=    0.000
 Gap=     0.171 Goal=   None    Shift=    0.000
 RMSDP=1.73D-04 MaxDP=2.76D-03 DE=-4.59D-05 OVMax= 6.13D-03

 Cycle   8  Pass 0  IDiag  1:
 E= -77.8963430926768     Delta-E=       -0.000010713563 Rises=F Damp=F
 DIIS: error= 5.18D-05 at cycle   8 NSaved=   8.
 NSaved= 8 IEnMin= 8 EnMin= -77.8963430926768     IErMin= 8 ErrMin= 5.18D-05
 ErrMax= 5.18D-05  0.00D+00 EMaxC= 1.00D-01 BMatC= 1.64D-07 BMatP= 3.13D-06
 IDIUse=1 WtCom= 1.00D+00 WtEn= 0.00D+00
 Coeff-Com: -0.806D-03 0.198D-02 0.184D-01-0.122D-01 0.776D-01-0.180D+00
 Coeff-Com: -0.820D-01 0.118D+01
 Coeff:     -0.806D-03 0.198D-02 0.184D-01-0.122D-01 0.776D-01-0.180D+00
 Coeff:     -0.820D-01 0.118D+01
 Gap=     0.272 Goal=   None    Shift=    0.000
 Gap=     0.171 Goal=   None    Shift=    0.000
 RMSDP=3.38D-05 MaxDP=5.03D-04 DE=-1.07D-05 OVMax= 1.18D-03

 Cycle   9  Pass 0  IDiag  1:
 E= -77.8963434525074     Delta-E=       -0.000000359831 Rises=F Damp=F
 DIIS: error= 4.73D-06 at cycle   9 NSaved=   9.
 NSaved= 9 IEnMin= 9 EnMin= -77.8963434525074     IErMin= 9 ErrMin= 4.73D-06
 ErrMax= 4.73D-06  0.00D+00 EMaxC= 1.00D-01 BMatC= 3.10D-09 BMatP= 1.64D-07
 IDIUse=1 WtCom= 1.00D+00 WtEn= 0.00D+00
 Coeff-Com:  0.917D-04-0.374D-03-0.301D-02 0.125D-02-0.929D-02 0.348D-01
 Coeff-Com: -0.157D-01-0.199D+00 0.119D+01
 Coeff:      0.917D-04-0.374D-03-0.301D-02 0.125D-02-0.929D-02 0.348D-01
 Coeff:     -0.157D-01-0.199D+00 0.119D+01
 Gap=     0.272 Goal=   None    Shift=    0.000
 Gap=     0.171 Goal=   None    Shift=    0.000
 RMSDP=2.86D-06 MaxDP=3.86D-05 DE=-3.60D-07 OVMax= 8.82D-05

 Initial convergence to 1.0D-05 achieved.  Increase integral accuracy.
 Cycle  10  Pass 1  IDiag  1:
 E= -77.8963420139030     Delta-E=        0.000001438604 Rises=F Damp=F
 DIIS: error= 1.13D-06 at cycle   1 NSaved=   1.
 NSaved= 1 IEnMin= 1 EnMin= -77.8963420139030     IErMin= 1 ErrMin= 1.13D-06
 ErrMax= 1.13D-06  0.00D+00 EMaxC= 1.00D-01 BMatC= 3.40D-10 BMatP= 3.40D-10
 IDIUse=1 WtCom= 1.00D+00 WtEn= 0.00D+00
 Coeff-Com:  0.100D+01
 Coeff:      0.100D+01
 Gap=     0.272 Goal=   None    Shift=    0.000
 Gap=     0.171 Goal=   None    Shift=    0.000
 RMSDP=2.86D-06 MaxDP=3.86D-05 DE= 1.44D-06 OVMax= 7.60D-06

 Cycle  11  Pass 1  IDiag  1:
 E= -77.8963420140493     Delta-E=       -0.000000000146 Rises=F Damp=F
 DIIS: error= 8.00D-07 at cycle   2 NSaved=   2.
 NSaved= 2 IEnMin= 2 EnMin= -77.8963420140493     IErMin= 2 ErrMin= 8.00D-07
 ErrMax= 8.00D-07  0.00D+00 EMaxC= 1.00D-01 BMatC= 9.07D-11 BMatP= 3.40D-10
 IDIUse=1 WtCom= 1.00D+00 WtEn= 0.00D+00
 Coeff-Com:  0.254D+00 0.746D+00
 Coeff:      0.254D+00 0.746D+00
 Gap=     0.272 Goal=   None    Shift=    0.000
 Gap=     0.171 Goal=   None    Shift=    0.000
 RMSDP=2.14D-07 MaxDP=1.83D-06 DE=-1.46D-10 OVMax= 4.26D-06

 Cycle  12  Pass 1  IDiag  1:
 E= -77.8963420140681     Delta-E=       -0.000000000019 Rises=F Damp=F
 DIIS: error= 9.87D-07 at cycle   3 NSaved=   3.
 NSaved= 3 IEnMin= 3 EnMin= -77.8963420140681     IErMin= 2 ErrMin= 8.00D-07
 ErrMax= 9.87D-07  0.00D+00 EMaxC= 1.00D-01 BMatC= 6.13D-11 BMatP= 9.07D-11
 IDIUse=1 WtCom= 1.00D+00 WtEn= 0.00D+00
 Coeff-Com:  0.225D-01 0.434D+00 0.544D+00
 Coeff:      0.225D-01 0.434D+00 0.544D+00
 Gap=     0.272 Goal=   None    Shift=    0.000
 Gap=     0.171 Goal=   None    Shift=    0.000
 RMSDP=1.25D-07 MaxDP=1.72D-06 DE=-1.89D-11 OVMax= 3.42D-06

 Cycle  13  Pass 1  IDiag  1:
 E= -77.8963420140844     Delta-E=       -0.000000000016 Rises=F Damp=F
 DIIS: error= 4.08D-07 at cycle   4 NSaved=   4.
 NSaved= 4 IEnMin= 4 EnMin= -77.8963420140844     IErMin= 4 ErrMin= 4.08D-07
 ErrMax= 4.08D-07  0.00D+00 EMaxC= 1.00D-01 BMatC= 1.22D-11 BMatP= 6.13D-11
 IDIUse=1 WtCom= 1.00D+00 WtEn= 0.00D+00
 Coeff-Com: -0.107D+00-0.539D-01 0.321D+00 0.840D+00
 Coeff:     -0.107D+00-0.539D-01 0.321D+00 0.840D+00
 Gap=     0.272 Goal=   None    Shift=    0.000
 Gap=     0.171 Goal=   None    Shift=    0.000
 RMSDP=6.44D-08 MaxDP=6.37D-07 DE=-1.63D-11 OVMax= 1.43D-06

 Cycle  14  Pass 1  IDiag  1:
 E= -77.8963420140889     Delta-E=       -0.000000000004 Rises=F Damp=F
 DIIS: error= 5.83D-08 at cycle   5 NSaved=   5.
 NSaved= 5 IEnMin= 5 EnMin= -77.8963420140889     IErMin= 5 ErrMin= 5.83D-08
 ErrMax= 5.83D-08  0.00D+00 EMaxC= 1.00D-01 BMatC= 4.28D-13 BMatP= 1.22D-11
 IDIUse=1 WtCom= 1.00D+00 WtEn= 0.00D+00
 Coeff-Com: -0.333D-01-0.375D-01 0.625D-01 0.276D+00 0.732D+00
 Coeff:     -0.333D-01-0.375D-01 0.625D-01 0.276D+00 0.732D+00
 Gap=     0.272 Goal=   None    Shift=    0.000
 Gap=     0.171 Goal=   None    Shift=    0.000
 RMSDP=1.30D-08 MaxDP=1.23D-07 DE=-4.49D-12 OVMax= 2.58D-07

 Cycle  15  Pass 1  IDiag  1:
 E= -77.8963420140891     Delta-E=       -0.000000000000 Rises=F Damp=F
 DIIS: error= 1.83D-08 at cycle   6 NSaved=   6.
 NSaved= 6 IEnMin= 6 EnMin= -77.8963420140891     IErMin= 6 ErrMin= 1.83D-08
 ErrMax= 1.83D-08  0.00D+00 EMaxC= 1.00D-01 BMatC= 4.56D-14 BMatP= 4.28D-13
 IDIUse=1 WtCom= 1.00D+00 WtEn= 0.00D+00
 Coeff-Com:  0.298D-02-0.570D-02-0.248D-01-0.200D-01 0.240D+00 0.808D+00
 Coeff:      0.298D-02-0.570D-02-0.248D-01-0.200D-01 0.240D+00 0.808D+00
 Gap=     0.272 Goal=   None    Shift=    0.000
 Gap=     0.171 Goal=   None    Shift=    0.000
 RMSDP=4.48D-09 MaxDP=6.28D-08 DE=-1.56D-13 OVMax= 1.09D-07

 SCF Done:  E(UB3LYP) =  -77.8963420141     A.U. after   15 cycles
            NFock= 15  Conv=0.45D-08     -V/T= 2.0115
 <Sx>= 0.0000 <Sy>= 0.0000 <Sz>= 0.5000 <S**2>= 0.7659 S= 0.5079
 <L.S>= 0.000000000000E+00
 KE= 7.701016210223D+01 PE=-2.356749800564D+02 EE= 5.290983738180D+01
 Annihilation of the first spin contaminant:
 S**2 before annihilation     0.7659,   after     0.7501
 Leave Link  502 at Mon Jan  8 21:33:58 2024, MaxMem=   104857600 cpu:               8.3 elap:               8.3
 (Enter /home/kangmg/compchem/gaussian/g16/l601.exe)
 Copying SCF densities to generalized density rwf, IOpCl= 1 IROHF=0.

 **********************************************************************

            Population analysis using the SCF density.

 **********************************************************************

 Alpha  occ. eigenvalues --  -10.22290 -10.19636  -0.75618  -0.57225  -0.45655
 Alpha  occ. eigenvalues --   -0.40637  -0.27298  -0.26636
 Alpha virt. eigenvalues --    0.00529   0.11558   0.14052   0.20493   0.31836
 Alpha virt. eigenvalues --    0.48868   0.54404   0.55857   0.60360   0.62792
 Alpha virt. eigenvalues --    0.65946   0.82420   0.85093   0.92101   0.94386
 Alpha virt. eigenvalues --    1.09401   1.44430   1.54341   1.73844   1.81357
 Alpha virt. eigenvalues --    1.90703   2.05092   2.20004   2.34808   2.55613
 Alpha virt. eigenvalues --    2.66883   4.02065   4.20717
  Beta  occ. eigenvalues --  -10.20667 -10.19790  -0.74010  -0.55234  -0.44063
  Beta  occ. eigenvalues --   -0.39301  -0.26383
  Beta virt. eigenvalues --   -0.09265   0.02014   0.12378   0.14556   0.21343
  Beta virt. eigenvalues --    0.33615   0.50040   0.54846   0.59427   0.63603
  Beta virt. eigenvalues --    0.64173   0.67046   0.83278   0.86617   0.92604
  Beta virt. eigenvalues --    0.96405   1.10616   1.45823   1.56721   1.80065
  Beta virt. eigenvalues --    1.84452   1.91841   2.07605   2.21560   2.36498
  Beta virt. eigenvalues --    2.58239   2.69244   4.04711   4.21963
          Condensed to atoms (all electrons):
               1          2          3          4          5
     1  C    5.215978   0.651735  -0.034463  -0.032946   0.342614
     2  C    0.651735   5.010634   0.368906   0.366205  -0.056777
     3  H   -0.034463   0.368906   0.539402  -0.039633   0.004564
     4  H   -0.032946   0.366205  -0.039633   0.545278  -0.005826
     5  H    0.342614  -0.056777   0.004564  -0.005826   0.559950
          Atomic-Atomic Spin Densities.
               1          2          3          4          5
     1  C    1.134708  -0.021620  -0.008589  -0.019583  -0.029518
     2  C   -0.021620  -0.185207   0.009138   0.008616   0.007136
     3  H   -0.008589   0.009138   0.041349  -0.012996   0.001235
     4  H   -0.019583   0.008616  -0.012996   0.102915  -0.007403
     5  H   -0.029518   0.007136   0.001235  -0.007403   0.053403
 Mulliken charges and spin densities:
               1          2
     1  C   -0.142918   1.055398
     2  C   -0.340703  -0.181937
     3  H    0.161225   0.030137
     4  H    0.166921   0.071549
     5  H    0.155475   0.024853
 Sum of Mulliken charges =  -0.00000   1.00000
 Mulliken charges and spin densities with hydrogens summed into heavy atoms:
               1          2
     1  C    0.012557   1.080251
     2  C   -0.012557  -0.080251
 Electronic spatial extent (au):  <R**2>=            155.9207
 Charge=             -0.0000 electrons
 Dipole moment (field-independent basis, Debye):
    X=              0.0056    Y=             -0.6492    Z=              0.4621  Tot=              0.7969
 Quadrupole moment (field-independent basis, Debye-Ang):
   XX=            -14.2547   YY=            -10.9623   ZZ=            -10.6091
   XY=             -0.3434   XZ=             -0.5374   YZ=             -0.3429
 Traceless Quadrupole moment (field-independent basis, Debye-Ang):
   XX=             -2.3127   YY=              0.9797   ZZ=              1.3329
   XY=             -0.3434   XZ=             -0.5374   YZ=             -0.3429
 Octapole moment (field-independent basis, Debye-Ang**2):
  XXX=             -2.1768  YYY=             32.4636  ZZZ=            -23.6465  XYY=              0.1580
  XXY=             14.1301  XXZ=            -10.3551  XZZ=             -1.3206  YZZ=             10.8763
  YYZ=             -7.8374  XYZ=              0.2879
 Hexadecapole moment (field-independent basis, Debye-Ang**3):
 XXXX=            -16.6891 YYYY=           -116.9705 ZZZZ=            -60.4799 XXXY=              5.4955
 XXXZ=              0.4059 YYYX=              3.5267 YYYZ=             14.7221 ZZZX=             -1.0231
 ZZZY=             18.6249 XXYY=            -26.4019 XXZZ=            -15.2269 YYZZ=            -29.0877
 XXYZ=              7.8692 YYXZ=             -0.0445 ZZXY=              1.6350
 N-N= 2.785863855824D+01 E-N=-2.356749793012D+02  KE= 7.701016210223D+01
                          Isotropic Fermi Contact Couplings
        Atom                 a.u.       MegaHertz       Gauss      10(-4) cm-1
     1  C(13)              0.45140     507.46539     181.07627     169.27223
     2  C(13)             -0.00701      -7.88269      -2.81274      -2.62938
     3  H(1)               0.01509      67.46631      24.07366      22.50434
     4  H(1)               0.03253     145.42191      51.89015      48.50753
     5  H(1)               0.02328     104.05413      37.12910      34.70872
 --------------------------------------------------------
       Center         ----  Spin Dipole Couplings  ----
                      3XX-RR        3YY-RR        3ZZ-RR
 --------------------------------------------------------
     1   Atom       -0.316512      0.252266      0.064246
     2   Atom       -0.175081      0.149708      0.025373
     3   Atom       -0.011619      0.017019     -0.005399
     4   Atom       -0.010444      0.013199     -0.002755
     5   Atom       -0.047184     -0.021099      0.068283
 --------------------------------------------------------
                        XY            XZ            YZ
 --------------------------------------------------------
     1   Atom        0.055519      0.001433     -0.668437
     2   Atom       -0.035876     -0.035423      0.006216
     3   Atom       -0.005264     -0.002621      0.013424
     4   Atom       -0.002507     -0.001543      0.000950
     5   Atom       -0.006197     -0.020843      0.022783
 --------------------------------------------------------


 ---------------------------------------------------------------------------------
              Anisotropic Spin Dipole Couplings in Principal Axis System
 ---------------------------------------------------------------------------------

       Atom             a.u.   MegaHertz   Gauss  10(-4) cm-1        Axes

              Baa    -0.5236   -70.261   -25.071   -23.437 -0.1792  0.6495  0.7390
     1 C(13)  Bbb    -0.3111   -41.752   -14.898   -13.927  0.9832  0.0911  0.1584
              Bcc     0.8347   112.013    39.969    37.363  0.0356  0.7549 -0.6549
 
              Baa    -0.1847   -24.783    -8.843    -8.267  0.9814  0.1023  0.1625
     2 C(13)  Bbb     0.0303     4.061     1.449     1.354 -0.1527 -0.0970  0.9835
              Bcc     0.1544    20.722     7.394     6.912 -0.1164  0.9900  0.0796
 
              Baa    -0.0126    -6.725    -2.400    -2.243  0.9755  0.0805  0.2048
     3 H(1)   Bbb    -0.0117    -6.220    -2.219    -2.075 -0.1493 -0.4416  0.8847
              Bcc     0.0243    12.945     4.619     4.318 -0.1617  0.8936  0.4187
 
              Baa    -0.0110    -5.848    -2.087    -1.951  0.9803  0.0949  0.1733
     4 H(1)   Bbb    -0.0026    -1.375    -0.491    -0.459 -0.1654 -0.0854  0.9825
              Bcc     0.0135     7.223     2.577     2.409 -0.1081  0.9918  0.0680
 
              Baa    -0.0510   -27.220    -9.713    -9.080  0.9841  0.0853  0.1556
     5 H(1)   Bbb    -0.0265   -14.149    -5.049    -4.720 -0.0456  0.9690 -0.2429
              Bcc     0.0775    41.370    14.762    13.799 -0.1715  0.2319  0.9575
 

 ---------------------------------------------------------------------------------

 No NMR shielding tensors so no spin-rotation constants.
 Leave Link  601 at Mon Jan  8 21:33:58 2024, MaxMem=   104857600 cpu:               0.2 elap:               0.2
 (Enter /home/kangmg/compchem/gaussian/g16/l608.exe)
 IExCor=  402 DFT=T Ex+Corr=B3LYP ExCW=0 ScaHFX=  0.200000
 ScaDFX=  0.800000  0.720000  1.000000  0.810000 ScalE2=  1.000000  1.000000
 IRadAn=      5 IRanWt=     -1 IRanGd=            0 ICorTp=0 IEmpDi=  4
 A total of   1 models will be applied.

 Results using SCF density:
 FoFJK:  IHMeth= 0 ICntrl=     500 DoSepK=F KAlg= 0 I1Cent=           0 FoldK=F
 IRaf=         0 NMat=       2 IRICut=       1 DoRegI=T DoRafI=F ISym2E= 0 IDoP0=0 IntGTp=1.
 FoFCou: FMM=F IPFlag=           0 FMFlag=           0 FMFlg1=           0
         NFxFlg=           0 DoJE=F BraDBF=F KetDBF=F FulRan=T
         wScrn=  0.000000 ICntrl=       500 IOpCl=  1 I1Cent=           0 NGrid=           0
         NMat0=    2 NMatS0=      2 NMatT0=    0 NMatD0=    2 NMtDS0=    0 NMtDT0=    0
 Symmetry not used in FoFCou.
 ET=   77.010162 EV= -235.674979 EJ=   64.759334 EK=  -11.321294 ENuc=   27.858639

 A=0 I=   1 IExCor=  402 IRadAn=       5 ScaHFX=  0.200000
            ScaDFX=  0.800000  0.720000  1.000000  0.810000
 HFx=  0.000000  0.000000  1.000000  0.000000  0.000000
 DFx=  0.000000  0.000000  1.000000  0.000000  0.000000
 DFc=  0.000000  0.000000  1.000000  0.000000  0.000000
            ENTVJ=  -66.046845 Ex=  -11.247199 Ec=   -0.602299 ETotM2e= -140.3914169608  ETot=  -77.8963420141
 Leave Link  608 at Mon Jan  8 21:33:59 2024, MaxMem=   104857600 cpu:               0.7 elap:               0.7
 (Enter /home/kangmg/compchem/gaussian/g16/l9999.exe)

 Test job not archived.
 1\1\GINC-KANGMG-22\SP\UB3LYP\6-31G(d)\C2H3(2)\KANGMG\08-Jan-2024\0\\#p
  b3lyp/6-31G* em=gd3bj ExtraLinks=L608 nosymm\\opted geometry\\0,2\C,0
 ,-0.04905811,-0.26851168,0.89379083\C,0,0.14091234,-1.55546913,0.50319
 023\H,0,0.34663169,-1.83205244,-0.53495581\H,0,0.10822036,-2.37936498,
 1.21941341\H,0,-0.23415206,-0.06852765,1.95593646\\Version=ES64L-G16Re
 vA.03\HF=-77.896342\S2=0.765899\S2-1=0.\S2A=0.750053\RMSD=4.482e-09\Di
 pole=0.002222,-0.2554221,0.1818163\Quadrupole=-1.7194003,0.7284035,0.9
 909969,-0.2553347,-0.3995307,-0.2549395\PG=C01 [X(C2H3)]\\@


 WE TEND TO MEET ANY NEW SITUATION BY REORGANIZING. IT CAN BE A
 WONDERFUL METHOD FOR CREATING THE ILLUSION OF PROGRESS WHILE PRODUCING
 CONFUSION, INEFFICIENCY, AND DEMORALIZATION.
     -- PETRONIUS ARBITER, 210 B.C.
 Job cpu time:       0 days  0 hours  0 minutes 10.5 seconds.
 Elapsed time:       0 days  0 hours  0 minutes 10.5 seconds.
 File lengths (MBytes):  RWF=      6 Int=      0 D2E=      0 Chk=      1 Scr=      1
 Normal termination of Gaussian 16 at Mon Jan  8 21:33:59 2024.
