opted geometry                                                          
SP        UB3LYP                                                      6-31G(d)            
Number of atoms                            I                5
Info1-9                                    I   N=           9
          14          14           0           0           0         111
           1          18        -502
Full Title                                 C   N=           2
opted geometry          
Route                                      C   N=           4
#p b3lyp/6-31G* em=gd3bj ExtraLinks=L608 nosymm 
Charge                                     I                0
Multiplicity                               I                2
Number of electrons                        I               15
Number of alpha electrons                  I                8
Number of beta electrons                   I                7
Number of basis functions                  I               36
Number of independent functions            I               36
Number of point charges in /Mol/           I                0
Number of translation vectors              I                0
Atomic numbers                             I   N=           5
           6           6           1           1           1
Nuclear charges                            R   N=           5
  6.00000000E+00  6.00000000E+00  1.00000000E+00  1.00000000E+00  1.00000000E+00
Current cartesian coordinates              R   N=          15
 -9.27063921E-02  1.76349338E+00 -2.54887263E+00 -9.27063921E-02  1.76349338E+00
  1.79017346E-02 -6.78626730E-02  3.58685926E+00  1.00207331E+00 -1.47379249E-01
  2.29383272E-02 -3.66264592E+00 -6.09220491E-02  3.52364454E+00 -3.62618726E+00
Number of symbols in /Mol/                 I                0
Force Field                                I                0
Atom Types                                 C   N=           5
                                                            
Int Atom Types                             I   N=           5
           0           0           0           0           0
MM charges                                 R   N=           5
  0.00000000E+00  0.00000000E+00  0.00000000E+00  0.00000000E+00  0.00000000E+00
Integer atomic weights                     I   N=           5
          12          12           1           1           1
Real atomic weights                        R   N=           5
  1.20000000E+01  1.20000000E+01  1.00782504E+00  1.00782504E+00  1.00782504E+00
Atom fragment info                         I   N=           5
           0           0           0           0           0
Atom residue num                           I   N=           5
           0           0           0           0           0
Nuclear spins                              I   N=           5
           0           0           1           1           1
Nuclear ZEff                               R   N=           5
 -3.60000000E+00 -3.60000000E+00 -1.00000000E+00 -1.00000000E+00 -1.00000000E+00
Nuclear ZNuc                               R   N=           5
  6.00000000E+00  6.00000000E+00  1.00000000E+00  1.00000000E+00  1.00000000E+00
Nuclear QMom                               R   N=           5
  0.00000000E+00  0.00000000E+00  0.00000000E+00  0.00000000E+00  0.00000000E+00
Nuclear GFac                               R   N=           5
  0.00000000E+00  0.00000000E+00  2.79284600E+00  2.79284600E+00  2.79284600E+00
MicOpt                                     I   N=           5
          -1          -1          -1          -1          -1
Number of residues                         I                0
Number of secondary structures             I                0
Number of contracted shells                I               14
Number of primitive shells                 I               34
Pure/Cartesian d shells                    I                1
Pure/Cartesian f shells                    I                0
Highest angular momentum                   I                2
Largest degree of contraction              I                6
Shell types                                I   N=          14
           0          -1          -1           2           0          -1
          -1           2           0           0           0           0
           0           0
Number of primitives per shell             I   N=          14
           6           3           1           1           6           3
           1           1           3           1           3           1
           3           1
Shell to atom map                          I   N=          14
           1           1           1           1           2           2
           2           2           3           3           4           4
           5           5
Primitive exponents                        R   N=          34
  3.04752488E+03  4.57369518E+02  1.03948685E+02  2.92101553E+01  9.28666296E+00
  3.16392696E+00  7.86827235E+00  1.88128854E+00  5.44249258E-01  1.68714478E-01
  8.00000000E-01  3.04752488E+03  4.57369518E+02  1.03948685E+02  2.92101553E+01
  9.28666296E+00  3.16392696E+00  7.86827235E+00  1.88128854E+00  5.44249258E-01
  1.68714478E-01  8.00000000E-01  1.87311370E+01  2.82539436E+00  6.40121692E-01
  1.61277759E-01  1.87311370E+01  2.82539436E+00  6.40121692E-01  1.61277759E-01
  1.87311370E+01  2.82539436E+00  6.40121692E-01  1.61277759E-01
Contraction coefficients                   R   N=          34
  1.83473713E-03  1.40373228E-02  6.88426223E-02  2.32184443E-01  4.67941348E-01
  3.62311985E-01 -1.19332420E-01 -1.60854152E-01  1.14345644E+00  1.00000000E+00
  1.00000000E+00  1.83473713E-03  1.40373228E-02  6.88426223E-02  2.32184443E-01
  4.67941348E-01  3.62311985E-01 -1.19332420E-01 -1.60854152E-01  1.14345644E+00
  1.00000000E+00  1.00000000E+00  3.34946043E-02  2.34726953E-01  8.13757326E-01
  1.00000000E+00  3.34946043E-02  2.34726953E-01  8.13757326E-01  1.00000000E+00
  3.34946043E-02  2.34726953E-01  8.13757326E-01  1.00000000E+00
P(S=P) Contraction coefficients            R   N=          34
  0.00000000E+00  0.00000000E+00  0.00000000E+00  0.00000000E+00  0.00000000E+00
  0.00000000E+00  6.89990666E-02  3.16423961E-01  7.44308291E-01  1.00000000E+00
  0.00000000E+00  0.00000000E+00  0.00000000E+00  0.00000000E+00  0.00000000E+00
  0.00000000E+00  0.00000000E+00  6.89990666E-02  3.16423961E-01  7.44308291E-01
  1.00000000E+00  0.00000000E+00  0.00000000E+00  0.00000000E+00  0.00000000E+00
  0.00000000E+00  0.00000000E+00  0.00000000E+00  0.00000000E+00  0.00000000E+00
  0.00000000E+00  0.00000000E+00  0.00000000E+00  0.00000000E+00
Coordinates of each shell                  R   N=          42
 -9.27063921E-02  1.76349338E+00 -2.54887263E+00 -9.27063921E-02  1.76349338E+00
 -2.54887263E+00 -9.27063921E-02  1.76349338E+00 -2.54887263E+00 -9.27063921E-02
  1.76349338E+00 -2.54887263E+00 -9.27063921E-02  1.76349338E+00  1.79017346E-02
 -9.27063921E-02  1.76349338E+00  1.79017346E-02 -9.27063921E-02  1.76349338E+00
  1.79017346E-02 -9.27063921E-02  1.76349338E+00  1.79017346E-02 -6.78626730E-02
  3.58685926E+00  1.00207331E+00 -6.78626730E-02  3.58685926E+00  1.00207331E+00
 -1.47379249E-01  2.29383272E-02 -3.66264592E+00 -1.47379249E-01  2.29383272E-02
 -3.66264592E+00 -6.09220491E-02  3.52364454E+00 -3.62618726E+00 -6.09220491E-02
  3.52364454E+00 -3.62618726E+00
Num ILSW                                   I              100
ILSW                                       I   N=         100
           1           1           0           0           2           0
           0           0           0           0         402          -1
           5           0           0           0           0           0
           0           0           0           0           0           0
           1           1           0           0           0           0
           0           0      100000           0          -1           0
           0           0           0           0           0           0
           0           0           0           1           0           0
           0 -2000000000           1           0           0           0
           0           0         141          52           0           0
           0           0           5           0           0           0
           0           0           0           5           0           1
           0           0           0           0           0           0
           0           0           0           0           0           0
           0           0           0           0           0           0
           0           0           0           0           0           0
           0           0           0           0
Num RLSW                                   I               52
RLSW                                       R   N=          52
  8.00000000E-01  7.20000000E-01  1.00000000E+00  8.10000000E-01  2.00000000E-01
  0.00000000E+00  0.00000000E+00  1.00000000E+00  0.00000000E+00  0.00000000E+00
  0.00000000E+00  0.00000000E+00  1.00000000E+00  0.00000000E+00  0.00000000E+00
  0.00000000E+00  0.00000000E+00  1.00000000E+00  0.00000000E+00  0.00000000E+00
  0.00000000E+00  0.00000000E+00  1.00000000E+00  0.00000000E+00  0.00000000E+00
  0.00000000E+00  0.00000000E+00  1.00000000E+00  0.00000000E+00  0.00000000E+00
  0.00000000E+00  0.00000000E+00  1.00000000E+00  0.00000000E+00  0.00000000E+00
  0.00000000E+00  0.00000000E+00  0.00000000E+00  1.00000000E+00  1.00000000E+00
  0.00000000E+00  1.00000000E+00  0.00000000E+00  0.00000000E+00  0.00000000E+00
  0.00000000E+00  0.00000000E+00  0.00000000E+00  0.00000000E+00  0.00000000E+00
  0.00000000E+00  0.00000000E+00
MxBond                                     I                3
NBond                                      I   N=           5
           3           2           1           1           1
IBond                                      I   N=          15
           2           4           5           1           3           0
           2           0           0           1           0           0
           1           0           0
RBond                                      R   N=          15
  2.00000000E+00  1.00000000E+00  1.00000000E+00  2.00000000E+00  1.00000000E+00
  0.00000000E+00  1.00000000E+00  0.00000000E+00  0.00000000E+00  1.00000000E+00
  0.00000000E+00  0.00000000E+00  1.00000000E+00  0.00000000E+00  0.00000000E+00
Virial Ratio                               R      2.011507344670658E+00
SCF Energy                                 R     -7.789634154827378E+01
Total Energy                               R     -7.789634154827378E+01
S**2                                       R      7.658989023931442E-01
S**2 after annihilation                    R      7.500531043217666E-01
RMS Density                                R      6.401323918411376E-09
Job Status                                 I                1
Nuclear derivative order                   I                0
External E-field                           R   N=          35
  0.00000000E+00  0.00000000E+00  0.00000000E+00  0.00000000E+00  0.00000000E+00
  0.00000000E+00  0.00000000E+00  0.00000000E+00  0.00000000E+00  0.00000000E+00
  0.00000000E+00  0.00000000E+00  0.00000000E+00  0.00000000E+00  0.00000000E+00
  0.00000000E+00  0.00000000E+00  0.00000000E+00  0.00000000E+00  0.00000000E+00
  0.00000000E+00  0.00000000E+00  0.00000000E+00  0.00000000E+00  0.00000000E+00
  0.00000000E+00  0.00000000E+00  0.00000000E+00  0.00000000E+00  0.00000000E+00
  0.00000000E+00  0.00000000E+00  0.00000000E+00  0.00000000E+00  0.00000000E+00
IOpCl                                      I                1
IROHF                                      I                0
Alpha Orbital Energies                     R   N=          36
 -1.02229004E+01 -1.01963568E+01 -7.56183834E-01 -5.72248131E-01 -4.56548870E-01
 -4.06366206E-01 -2.72977250E-01 -2.66364773E-01  5.28805471E-03  1.15578027E-01
  1.40520374E-01  2.04928502E-01  3.18361556E-01  4.88684458E-01  5.44044896E-01
  5.58572359E-01  6.03605388E-01  6.27917531E-01  6.59459213E-01  8.24202124E-01
  8.50933779E-01  9.21007383E-01  9.43853724E-01  1.09400671E+00  1.44429929E+00
  1.54340585E+00  1.73843617E+00  1.81357128E+00  1.90702960E+00  2.05092076E+00
  2.20004291E+00  2.34807419E+00  2.55612960E+00  2.66883190E+00  4.02065289E+00
  4.20716987E+00
Beta Orbital Energies                      R   N=          36
 -1.02066674E+01 -1.01979051E+01 -7.40098383E-01 -5.52342605E-01 -4.40633098E-01
 -3.93008980E-01 -2.63832807E-01 -9.26548772E-02  2.01416830E-02  1.23783862E-01
  1.45564550E-01  2.13431539E-01  3.36146872E-01  5.00399613E-01  5.48455639E-01
  5.94270511E-01  6.36027092E-01  6.41735298E-01  6.70458183E-01  8.32783062E-01
  8.66168172E-01  9.26038954E-01  9.64047917E-01  1.10616527E+00  1.45823091E+00
  1.56720585E+00  1.80064517E+00  1.84451725E+00  1.91840965E+00  2.07605292E+00
  2.21560147E+00  2.36498054E+00  2.58238689E+00  2.69244120E+00  4.04710523E+00
  4.21962907E+00
Alpha MO coefficients                      R   N=        1296
  1.36775228E-02  1.58216948E-04 -1.81647270E-06 -5.65277848E-05 -3.81156159E-04
  4.55290964E-03  1.76026186E-05  8.49724561E-04  2.19728215E-03 -2.94708273E-04
 -3.24651068E-04 -3.90082567E-04 -9.13000853E-07 -3.24018158E-07  1.62762199E-05
  9.92480620E-01  4.96975738E-02  8.85909911E-07  2.41248307E-04 -7.78512328E-05
 -1.17418021E-02 -2.31868393E-05 -1.64186312E-03  1.72202609E-03 -1.01343272E-02
 -9.75211769E-03 -9.71987471E-03  1.01808832E-05 -3.74873258E-06 -1.22582572E-04
 -2.33771470E-04  2.55826536E-03 -4.30749994E-05  5.04842327E-04 -1.70858635E-04
 -2.31993353E-04  9.92686344E-01  4.87444199E-02 -1.78222277E-06  2.68502703E-05
 -5.69877980E-06 -1.27885765E-02  1.27827290E-05 -1.09545260E-04 -8.31185139E-04
 -9.69173502E-03 -9.30260678E-03 -9.02175536E-03  1.08061331E-05  3.38899786E-06
  7.16274583E-06 -1.41156323E-02 -1.18937527E-03 -4.16320656E-07  5.17974964E-06
  4.29525147E-04  4.40570232E-03 -2.25145637E-06  9.43798220E-05 -1.85782032E-03
  1.79055185E-05 -6.22486290E-05 -2.24837739E-04 -2.50753164E-06  1.72180326E-06
  1.09541366E-05 -8.31723248E-05 -5.60130296E-05 -3.58301126E-04  2.14017232E-03
 -3.33177489E-04  2.23391104E-03 -1.63283429E-01  3.18458456E-01 -2.39639951E-04
  1.00927871E-02  9.80137599E-02  2.32579863E-01 -1.12486543E-05  7.19046506E-03
  2.40920714E-04 -1.85235349E-02  7.78556234E-04  8.78796648E-03  5.36251590E-04
  1.18946256E-04  1.20066857E-03 -1.55619675E-01  3.13091345E-01  2.99922036E-04
  3.34065179E-02 -1.19333808E-01  2.41727807E-01  8.15082535E-05  1.02606362E-02
 -1.39944727E-02 -1.70897179E-02 -1.16152837E-03  5.92632610E-03  3.42141578E-04
 -3.92481791E-05  6.70749884E-05  9.33503671E-02  2.05668830E-02  8.54175540E-02
  2.03928463E-02  9.37802702E-02  1.92040658E-02  1.14144639E-01 -2.30562496E-01
  1.69416577E-03  2.96582131E-02  2.08623771E-01 -2.35040106E-01  6.95012218E-04
  1.30473314E-02  7.26685984E-02  1.16118100E-02 -1.52996647E-02  8.36992204E-03
 -7.76476765E-04 -1.49063670E-04  1.76818369E-03 -1.28899671E-01  2.69209313E-01
  1.49770661E-03  1.04120722E-01  1.20202601E-01  2.65945252E-01  2.76002904E-04
  2.61366928E-02  4.39834672E-02 -1.22110698E-02  1.02212994E-02 -1.13587759E-02
  4.25902937E-04 -2.40556049E-05  5.02749964E-03  1.86694818E-01  9.49213682E-02
 -1.63955321E-01 -7.61145318E-02 -1.45703980E-01 -7.26156187E-02  6.92760852E-04
 -1.62509177E-03  7.26431042E-03  3.44839502E-01 -2.00973942E-01 -1.56695122E-02
  2.63445775E-03  1.27634648E-01 -7.48674247E-02 -3.80662829E-04  1.10431690E-02
 -3.87465574E-03  8.06894188E-05 -2.52256054E-04 -1.13706302E-02  3.45546374E-02
 -7.93405919E-02  4.53478979E-03  2.50299134E-01  1.55448164E-01 -7.04125748E-02
  1.85145120E-03  9.41294245E-02  1.95071551E-02  1.25445897E-03  1.23296077E-02
 -1.78474383E-03  1.36181943E-04 -1.13038729E-04 -3.13213501E-03  1.36403437E-01
  1.14745448E-01 -1.03752812E-01 -7.53600366E-02  2.44902385E-01  1.89166725E-01
  1.87298243E-02 -4.12277369E-02 -8.30125955E-03 -2.49832815E-01 -3.17458367E-01
 -3.63846326E-02 -3.27425120E-03 -9.40628440E-02 -1.19722281E-01  1.32989479E-03
  1.31950133E-02 -2.36977986E-03  4.95871477E-04  3.77747336E-04  1.55052418E-02
 -1.24049848E-02  2.27966391E-02 -1.55488767E-03  5.12443546E-02  3.66032751E-01
  8.33441660E-02 -1.15166163E-03 -2.32631815E-03  1.24032902E-01 -8.12146720E-04
  1.38546108E-02 -9.21429491E-03  2.48213272E-04  3.64360009E-04  1.66943310E-02
  1.72371573E-01  1.59342811E-01  2.32772271E-01  2.03212615E-01 -5.24165650E-02
 -4.23396494E-02  8.30637726E-04 -2.17171892E-03  3.78823074E-01 -3.14284118E-03
 -8.46695395E-03  6.26091633E-04  2.70461414E-01 -4.36216529E-03 -2.81100713E-03
  2.48830233E-05  1.36467588E-04  1.53563590E-04  8.62605903E-04  1.63653889E-02
 -1.70313016E-03 -3.86280664E-03  7.93079514E-03  4.34185255E-01 -3.08789017E-02
  1.57373815E-02  1.89672912E-02  2.91896524E-01 -2.00765129E-02  1.16857674E-02
 -8.03232818E-05 -4.69223375E-04 -5.52677053E-04  1.99402586E-03 -1.60465638E-02
 -1.91190445E-04 -6.59837993E-03 -7.78316559E-03 -4.63731838E-03 -5.06725030E-03
  7.09731001E-03  9.67805740E-03 -2.26910554E-02  5.64549812E-02  1.61684035E-02
 -1.32422279E-01  1.12748422E-01  1.15526472E-02  1.27902797E-02 -4.76938707E-02
  2.14117117E-02 -1.24398408E-03 -2.08240409E-03 -3.12039179E-03  1.52098048E-04
  1.47732878E-03  2.97684213E-02  7.25888675E-02 -1.51266096E-01  3.13893382E-02
  4.61047382E-01 -2.57717688E-01 -3.49431913E-01  2.13923814E-02  2.99649692E-01
 -2.09732460E-01  9.65123066E-04  9.61658601E-03  1.05754850E-02  1.55590175E-04
 -5.39833304E-04  1.26650103E-02  1.43049960E-01  1.74902401E-01  1.08146747E-01
  1.28961705E-01 -1.52642452E-01 -2.06877917E-01 -9.78987562E-04  1.95446386E-03
  4.35848474E-01 -1.10643159E-02 -1.62816373E-03  6.00507379E-03  6.21841039E-01
 -1.63533182E-02 -4.10982673E-03 -9.42741202E-05 -5.95835590E-05 -8.04278619E-05
  6.91145510E-04 -2.41561531E-02  3.44321868E-04  7.03307401E-04 -1.53324011E-03
 -4.28757123E-01  7.11590256E-03 -4.83686441E-04 -3.14568560E-03 -5.74681172E-01
  9.37276690E-03 -2.41435678E-03  2.71141743E-05  5.98802555E-05  7.32155731E-05
 -2.24688007E-03 -2.48351178E-02  7.24333161E-04  1.75537584E-03  5.20728808E-03
 -2.13234162E-03 -6.43737105E-03 -5.23995482E-04 -1.18577742E-03  7.58278511E-02
 -1.21700218E-01 -2.79181045E-03 -1.61510289E-01  1.64585092E-01 -1.14676718E+00
 -3.83922179E-03 -2.83548333E-01  5.56649519E-01  4.07122540E-03  1.05362826E-02
 -3.32180087E-03  5.60796008E-05 -3.11114558E-04 -1.39763525E-02  5.90223941E-02
 -9.96438807E-02 -2.36604061E-03 -2.01589292E-01 -1.48596688E-01 -1.00578337E+00
 -7.00544471E-03 -5.32900170E-01 -3.21326046E-01  1.48661770E-03  1.10818202E-02
 -4.47705006E-03  2.15904371E-04  2.66429528E-04  1.19704573E-02  7.85656077E-02
  1.32135926E+00 -7.19313525E-04  4.24059533E-01  7.93681073E-02  1.33542351E+00
 -1.14576626E-01  1.70963563E-01 -7.93293267E-03 -1.76281525E-01 -1.45466106E-01
  1.76589399E+00 -2.24031573E-02 -4.67643013E-01 -3.02441122E-01 -8.64868600E-03
 -4.95287546E-03 -6.46557020E-03 -2.42971163E-05 -8.07132188E-05 -1.41754569E-02
  6.57170073E-02 -8.89736424E-02 -4.64029305E-04 -1.66403272E-01 -2.63048116E-02
 -9.49859118E-01  2.39021135E-03 -2.92705691E-01  6.05175224E-02  7.45382515E-03
 -1.41764604E-03  1.10587447E-02 -3.60955776E-04  5.93583821E-04  1.72120231E-02
  8.34197514E-02  9.62638648E-01 -1.00942495E-01 -1.66725846E+00 -1.46640756E-02
 -4.70337746E-01  3.19717613E-02 -1.30344703E-02 -9.34594306E-03 -3.89490657E-01
  4.02782831E-03 -7.48559704E-01 -3.46266883E-02 -1.49932091E+00 -4.25599834E-01
  5.98409545E-03 -4.78257821E-03  6.35175136E-03 -2.05566637E-04  6.98453478E-05
  5.30884851E-03 -6.50982904E-02  1.05631827E-01  2.51390101E-03  1.71907178E-01
  4.16800877E-02  1.36906302E+00  1.80290301E-02  9.74631673E-01 -1.59902067E-01
 -7.11648670E-03  3.25219027E-03  3.27363918E-04  6.40528555E-05  5.23148021E-04
  2.37365159E-02  2.99571256E-02 -1.27820577E+00 -3.76080018E-03 -1.37810390E+00
  2.07314853E-02  1.60516657E+00  7.69846084E-02 -5.11602346E-02  4.22995924E-04
  7.21988068E-02 -1.94620977E-01 -2.53724945E+00  2.07268148E-03  2.77745231E-01
 -2.59851113E+00  7.89929310E-03 -2.74928917E-02  2.75752657E-02 -1.10563042E-03
 -2.22721512E-04 -1.57425425E-02 -8.64193858E-02  1.10355009E-01 -2.53447219E-03
 -1.84337020E-01 -2.17515460E-01  2.76170161E+00 -3.04515858E-03 -3.13164528E-01
 -2.38797184E+00 -2.78904490E-03  1.75542038E-02 -1.84705391E-02  3.32777753E-04
  1.29562187E-04  7.09625279E-04  7.15200655E-02  6.70950995E-01 -9.04047700E-02
 -2.28007039E-01 -5.19627710E-02 -7.62744824E-01  1.67407077E-02  1.87257461E-01
 -5.53840366E-04  5.05291991E-03  5.55966101E-01  3.49977725E-01 -2.71168023E-03
 -7.79744429E-02 -1.00307221E+00 -5.33642014E-03 -3.84745243E-02  8.13677232E-02
 -9.04332808E-04  8.51488492E-05  6.90137626E-03  2.90776873E-02  1.45166582E-01
  5.79386681E-04  5.90128075E-02 -5.86345204E-01  1.50321987E-01  1.36943799E-03
  4.98679154E-02  1.04214049E+00 -9.79477224E-03 -3.62155668E-02  7.99203254E-02
 -5.60631291E-04  5.02721422E-05 -2.17130368E-03 -7.97345737E-02 -8.82651531E-02
 -5.84502589E-02 -2.14962554E-01 -7.69421512E-02 -7.22742320E-02 -1.71594629E-04
  2.96362770E-03  6.89367476E-01 -1.61660623E-02 -6.35684231E-04 -1.20524604E-03
 -5.71368571E-01  1.21128442E-02 -2.31833914E-03  2.12062978E-04 -4.07346444E-05
  4.52096435E-04 -9.65606532E-05  5.20181695E-02 -1.24538704E-03 -3.02866166E-05
  2.26122285E-03  7.69599443E-01 -1.11847260E-02 -3.23138974E-04 -3.15658261E-04
 -7.33380775E-01  9.91439795E-03 -2.26424994E-05 -4.52916236E-05  2.95547243E-04
  3.30071130E-04 -3.23222032E-03 -5.17088952E-02  1.34189821E-03  1.38557749E-03
 -1.55637204E-03 -1.55896524E-03 -3.31853610E-03  7.82376180E-04 -3.93455528E-04
 -5.94580564E-03  1.06603392E-01  2.12605627E-03 -1.97025274E-01  1.62232280E-01
  1.06771046E-01  4.33550214E-03  3.60632328E-01  9.95494231E-02  6.40581755E-03
  1.23755105E-02 -7.68251914E-03  9.14967204E-04  8.53543488E-04  2.95483470E-02
 -1.66900804E-02  3.21964460E-01 -1.72581113E-02 -8.18131615E-01  2.37553740E-01
 -3.31045437E-01  2.05862844E-02  1.09305403E+00  1.92147380E-01  2.87546091E-02
 -2.36802900E-02  6.28802478E-02 -6.39645573E-04 -1.04907703E-03 -3.47710497E-02
 -2.80659656E-01 -2.31817182E-01  2.63954149E-01  1.51759129E-01 -1.91652907E-01
 -6.00675719E-02  3.43135617E-03 -4.43586436E-01 -8.69397272E-03 -3.41794137E-01
 -2.98461863E-01  3.75569199E-01  2.13480766E-02  8.58645994E-01 -1.74970125E-01
  9.69576039E-03 -7.85694585E-02 -4.86815508E-03 -1.53877424E-03  1.97472733E-03
  1.01388033E-01 -3.29451794E-02 -6.23826246E-01  7.54776506E-03  2.50065185E-01
 -2.59653072E-01  1.14088376E+00 -1.19661956E-02 -2.89550500E-01  2.30894829E-02
  2.55972997E-02 -7.91408226E-02 -1.22420803E-01 -1.68369159E-03 -1.37234884E-03
 -8.50376196E-02 -5.24696321E-01  1.68205297E-01  1.03164539E-01 -3.51692636E-02
 -4.84092357E-01 -1.65868211E-01 -2.90282495E-04 -1.05675653E-03 -8.22614282E-01
  1.97811721E-02  6.07789793E-03  2.30679650E-03  1.17066229E+00 -2.81881992E-02
 -1.98931756E-03  2.14561838E-04  1.08227917E-04 -1.25888060E-03 -3.91486197E-04
  9.81188694E-03 -2.39662522E-05  1.86843901E-04  1.62763524E-03  7.23268782E-01
 -1.76406996E-02  6.29330046E-03 -2.48530035E-03 -1.09724986E+00  2.84234681E-02
 -1.63553124E-03 -2.03156535E-04 -1.97588746E-04  1.37612403E-03 -3.69296042E-03
  2.18000281E-02 -6.98791072E-04 -6.67830533E-04 -2.83806955E-03 -2.89374696E-04
  1.70361664E-03 -1.51120759E-03  2.39059826E-03  8.90488477E-02  3.21029894E-01
 -5.95432762E-03 -8.23686130E-02 -5.29964431E-01 -8.49136225E-01  1.87210755E-02
  2.37385469E-01  9.37815167E-01 -9.93436858E-02  1.15839933E-01  1.63576865E-01
  6.37605450E-03  1.26756492E-03  2.27245257E-02 -4.29668502E-02  4.04359847E-01
  3.39978085E-03  2.86171155E-02 -5.67111510E-01 -6.30545754E-01 -1.04131180E-02
 -9.37538494E-02  5.26094221E-01  2.94338188E-02  5.58799379E-02 -8.66005346E-02
  9.20042295E-04 -8.39813473E-04 -2.03078510E-02 -7.30414087E-02  5.54582048E-02
  5.91359745E-01  2.09788898E-01  4.60438390E-01  1.15825342E-01 -3.10930217E-03
  4.83555363E-01 -2.04557416E-02 -8.49250929E-01  3.10133392E-01 -1.23799355E+00
  6.36777218E-02  2.75202105E+00 -7.06164143E-01 -3.70004465E-03  8.07549093E-02
 -2.11332934E-02  3.19832659E-03  1.10216297E-03  2.71356490E-02  2.96667424E-02
  3.80198135E-01  6.60798988E-03  4.69283366E-01  4.10979099E-01 -5.60297986E-01
 -3.45456338E-02 -1.99322820E+00 -1.16589702E+00 -5.87990309E-02  6.14950654E-02
  1.11488375E-01  2.45643217E-03 -7.09706408E-04 -9.52351481E-03  6.59162738E-02
  1.41231652E+00  8.51004931E-02  1.25739417E+00  9.85035655E-02 -1.46498593E+00
  4.70807932E-03  3.20856531E-01  1.74804678E-02  6.81090376E-01  1.78275626E-01
 -8.97902415E-01 -2.97334590E-02 -1.11533453E+00 -5.13308247E-01 -4.47657291E-03
  4.96071956E-02 -3.32343629E-03  2.14717092E-03  3.86488716E-03  1.65931244E-01
 -3.43127625E-03  4.75515482E-01  4.69745209E-03  3.89751988E-01  3.77270915E-01
 -6.25177255E-01 -7.45008380E-03 -7.13083397E-01 -8.97240943E-01  1.92660524E-02
 -1.94679919E-02  9.07577902E-02 -7.88463162E-04 -3.05372927E-03 -1.41159685E-01
 -4.47500329E-01  1.41384340E+00  5.32527824E-01 -1.20691182E+00 -3.94619758E-01
  1.05555674E+00  3.01018703E-02 -1.00869499E+00  5.14494526E-03  1.59390139E-02
  6.31224335E-01  1.50976075E+00 -1.16496155E-02 -1.41828254E-01 -1.33283284E+00
 -1.10963332E-01  1.01759902E-01 -1.41834556E-01  5.93848180E-03  1.00910185E-03
 -3.22483071E-03 -8.37185442E-03 -5.52757706E-01 -3.94888315E-04 -7.16574349E-03
  1.42915411E-01  1.40879788E+00  3.14348678E-03  1.29824719E-01 -5.57047485E-01
  5.52376997E-03 -5.27673935E-02 -1.83174501E-02 -1.38257990E-03 -7.10391199E-04
 -3.72386808E-04 -5.33796661E-02 -7.65057724E-02  6.14778714E-01 -1.42048136E+00
  6.65111745E-01 -1.31830654E+00 -3.75831381E-03  3.18915900E-01  3.52856956E-03
  1.72285675E-01  9.15391639E-02 -1.05638216E+00  1.30432465E-02  5.40292337E-01
 -3.27908609E-01  7.48360926E-03  5.50527790E-02 -1.75113516E-02  3.94035035E-03
  4.58581957E-03  1.28446823E-01  3.70237526E-02 -6.75634875E-01 -4.60610429E-03
 -2.88744961E-01 -1.17143406E-01  1.50458814E+00 -6.02466424E-03 -1.97294827E-01
 -2.56273928E-01 -1.59890951E-01  1.30405035E-01 -3.03296199E-02  5.01955714E-03
 -1.86912869E-03  7.85993466E-04  9.09728240E-01 -9.61031823E-01  5.57117309E-01
 -1.40486443E-01 -5.24967285E-01  3.32595156E-01 -3.65943067E-02 -1.48585150E+00
 -7.28791400E-04 -4.37710307E-02 -1.55367990E-01  5.37296610E+00  1.25071565E-02
  7.74766153E-01  1.74919423E+00 -2.42235382E-02 -1.62053325E-01 -5.53136074E-03
 -2.81974222E-03  1.90022429E-03  5.34755326E-02  4.14230986E-02  1.39691029E+00
  8.20168978E-04  6.94093806E-02 -2.12053125E-01 -5.14942506E+00 -1.28651304E-02
 -8.59464057E-01  1.87090960E+00 -1.67832458E-02  2.08557879E-01 -1.09851701E-02
  3.22574091E-03 -7.30959134E-04  8.87163684E-03  3.43045083E-01  5.64680690E-01
  9.16384094E-02 -2.15275820E-01 -2.99581856E-01 -6.12961045E-01  1.81422867E-05
 -1.31833293E-03  1.61730691E-01 -4.09691979E-03  7.56297158E-04  4.44904206E-03
 -2.99044573E-02  4.06956679E-03 -4.25502685E-04 -4.17035978E-03  4.83500912E-03
 -4.55393762E-04 -1.87008597E-03 -6.17944269E-01  1.53727047E-02  1.57224665E-04
  4.76501185E-04  1.53304615E-01 -4.03679352E-03 -5.11371474E-04 -2.57740910E-03
 -2.50584301E-02 -1.75268813E-03  9.27095043E-04 -4.93958038E-03  5.71218536E-03
 -3.88921698E-04  4.24954881E-03  6.28310359E-01 -1.49737986E-02  2.89350484E-03
 -7.47061057E-04  1.81583623E-03 -8.54173996E-04  5.99347713E-05 -2.82513232E-03
 -1.02542877E-04 -1.74217788E-03 -1.08541509E-03  3.08075302E-03  1.24165085E-04
  6.11266840E-03  2.86525939E-03  5.14102541E-03  6.67802508E-05  2.71467818E-02
 -2.73996973E-02  1.44634951E-04  6.63761462E-01  2.17236200E-03 -7.71866698E-03
  7.44990142E-05  3.14510562E-03  2.36915385E-03  3.03067205E-03  6.22670175E-04
 -9.13840703E-03 -6.96041889E-03 -7.16331150E-03 -9.04073020E-04  2.57167553E-02
 -2.59808391E-02  1.49057160E-04  7.00368577E-01  5.95166730E-04  9.67772125E-03
 -1.45020756E-04  6.41954639E-03  3.43665764E-03 -2.05937905E-03 -4.69786752E-03
 -7.85124649E-04  1.12431881E-02  8.85069535E-02  2.77855204E-03  8.11253699E-02
  1.47328316E-02 -2.90540576E-01  2.77932738E-02  1.11350694E+00  1.31876222E-01
  2.37019748E-01 -2.43655121E-01  8.29727609E-03  2.06984581E-02 -9.70650104E-03
 -2.52857557E-01  6.77272409E-03  1.72490894E-01  3.56764606E-03  1.40963403E-01
  3.31135731E-02 -4.94480633E-01 -1.62698147E-02 -8.17769837E-01 -1.97374949E-01
  5.27813244E-01 -5.43445795E-01  2.65460365E-03 -7.25183613E-02  1.87554507E-02
  6.19844476E-01  1.24314781E-01  4.43612584E-01  5.76076675E-01  3.71157007E-01
 -2.74496829E-01 -2.57705013E-01 -4.71003722E-04 -2.55412628E-03  1.58485228E-04
 -5.30103812E-03 -1.21480318E-03  7.98724130E-03 -4.77724410E-03 -8.02512579E-02
 -6.64524291E-03  2.06390411E-02 -2.02225688E-02 -6.64935200E-04  7.49680300E-01
 -3.14539380E-03  1.26207106E-02 -4.81298340E-04 -1.13431001E-02 -1.48057616E-03
 -8.66111706E-03 -2.24316027E-03  3.40083363E-02  6.57998961E-03  5.57418833E-02
  1.07667351E-02 -4.89866546E-02  4.98342222E-02  9.28129268E-05 -7.13307849E-01
  4.91237106E-04 -4.41318038E-02 -6.65434149E-03 -2.88653799E-02 -3.81209798E-02
 -2.39766009E-02  2.37366022E-02  2.18933388E-02  2.56939370E-02  1.98565495E-01
 -2.62500208E-03 -1.42347347E-01  1.10024531E-01 -4.32098344E-01 -3.22988954E-03
 -1.84815795E-01  1.74864581E-01  6.10690110E-01 -3.84409690E-01 -1.47799521E-01
 -2.81034173E-02  5.38605703E-03  3.84986204E-01  2.95061711E-02  1.58531312E-01
 -1.54824992E-03 -1.10775029E-01 -1.03421211E-01 -5.03333776E-01 -1.85536432E-03
 -1.86083091E-01  1.11115231E-02  5.37403041E-01 -2.85841014E-01 -1.61354402E-01
 -6.35352305E-03 -8.12218319E-03 -4.89122981E-01  5.32735214E-01  5.64802959E-02
 -4.01992515E-02  1.31190670E-01  5.64795339E-01  8.49626540E-02 -1.95322988E-02