opted geometry                                                          
SP        UB3LYP                                                      6-31G(d)            
Number of atoms                            I                5
Info1-9                                    I   N=           9
          14          14           0           0           0         111
           1          18        -502
Full Title                                 C   N=           2
opted geometry          
Route                                      C   N=           4
#p b3lyp/6-31G* em=gd3bj ExtraLinks=L608 nosymm 
Charge                                     I                0
Multiplicity                               I                2
Number of electrons                        I               15
Number of alpha electrons                  I                8
Number of beta electrons                   I                7
Number of basis functions                  I               36
Number of independent functions            I               36
Number of point charges in /Mol/           I                0
Number of translation vectors              I                0
Atomic numbers                             I   N=           5
           6           6           1           1           1
Nuclear charges                            R   N=           5
  6.00000000E+00  6.00000000E+00  1.00000000E+00  1.00000000E+00  1.00000000E+00
Current cartesian coordinates              R   N=          15
 -9.27063921E-02 -5.07413536E-01  1.68901988E+00  2.66285730E-01 -2.93941065E+00
  9.50891723E-01  6.55038960E-01 -3.46207736E+00 -1.01091997E+00  2.04506842E-01
 -4.49634816E+00  2.30435738E+00 -4.42483265E-01 -1.29498490E-01  3.69618423E+00
Number of symbols in /Mol/                 I                0
Force Field                                I                0
Atom Types                                 C   N=           5
                                                            
Int Atom Types                             I   N=           5
           0           0           0           0           0
MM charges                                 R   N=           5
  0.00000000E+00  0.00000000E+00  0.00000000E+00  0.00000000E+00  0.00000000E+00
Integer atomic weights                     I   N=           5
          12          12           1           1           1
Real atomic weights                        R   N=           5
  1.20000000E+01  1.20000000E+01  1.00782504E+00  1.00782504E+00  1.00782504E+00
Atom fragment info                         I   N=           5
           0           0           0           0           0
Atom residue num                           I   N=           5
           0           0           0           0           0
Nuclear spins                              I   N=           5
           0           0           1           1           1
Nuclear ZEff                               R   N=           5
 -3.60000000E+00 -3.60000000E+00 -1.00000000E+00 -1.00000000E+00 -1.00000000E+00
Nuclear ZNuc                               R   N=           5
  6.00000000E+00  6.00000000E+00  1.00000000E+00  1.00000000E+00  1.00000000E+00
Nuclear QMom                               R   N=           5
  0.00000000E+00  0.00000000E+00  0.00000000E+00  0.00000000E+00  0.00000000E+00
Nuclear GFac                               R   N=           5
  0.00000000E+00  0.00000000E+00  2.79284600E+00  2.79284600E+00  2.79284600E+00
MicOpt                                     I   N=           5
          -1          -1          -1          -1          -1
Number of residues                         I                0
Number of secondary structures             I                0
Number of contracted shells                I               14
Number of primitive shells                 I               34
Pure/Cartesian d shells                    I                1
Pure/Cartesian f shells                    I                0
Highest angular momentum                   I                2
Largest degree of contraction              I                6
Shell types                                I   N=          14
           0          -1          -1           2           0          -1
          -1           2           0           0           0           0
           0           0
Number of primitives per shell             I   N=          14
           6           3           1           1           6           3
           1           1           3           1           3           1
           3           1
Shell to atom map                          I   N=          14
           1           1           1           1           2           2
           2           2           3           3           4           4
           5           5
Primitive exponents                        R   N=          34
  3.04752488E+03  4.57369518E+02  1.03948685E+02  2.92101553E+01  9.28666296E+00
  3.16392696E+00  7.86827235E+00  1.88128854E+00  5.44249258E-01  1.68714478E-01
  8.00000000E-01  3.04752488E+03  4.57369518E+02  1.03948685E+02  2.92101553E+01
  9.28666296E+00  3.16392696E+00  7.86827235E+00  1.88128854E+00  5.44249258E-01
  1.68714478E-01  8.00000000E-01  1.87311370E+01  2.82539436E+00  6.40121692E-01
  1.61277759E-01  1.87311370E+01  2.82539436E+00  6.40121692E-01  1.61277759E-01
  1.87311370E+01  2.82539436E+00  6.40121692E-01  1.61277759E-01
Contraction coefficients                   R   N=          34
  1.83473713E-03  1.40373228E-02  6.88426223E-02  2.32184443E-01  4.67941348E-01
  3.62311985E-01 -1.19332420E-01 -1.60854152E-01  1.14345644E+00  1.00000000E+00
  1.00000000E+00  1.83473713E-03  1.40373228E-02  6.88426223E-02  2.32184443E-01
  4.67941348E-01  3.62311985E-01 -1.19332420E-01 -1.60854152E-01  1.14345644E+00
  1.00000000E+00  1.00000000E+00  3.34946043E-02  2.34726953E-01  8.13757326E-01
  1.00000000E+00  3.34946043E-02  2.34726953E-01  8.13757326E-01  1.00000000E+00
  3.34946043E-02  2.34726953E-01  8.13757326E-01  1.00000000E+00
P(S=P) Contraction coefficients            R   N=          34
  0.00000000E+00  0.00000000E+00  0.00000000E+00  0.00000000E+00  0.00000000E+00
  0.00000000E+00  6.89990666E-02  3.16423961E-01  7.44308291E-01  1.00000000E+00
  0.00000000E+00  0.00000000E+00  0.00000000E+00  0.00000000E+00  0.00000000E+00
  0.00000000E+00  0.00000000E+00  6.89990666E-02  3.16423961E-01  7.44308291E-01
  1.00000000E+00  0.00000000E+00  0.00000000E+00  0.00000000E+00  0.00000000E+00
  0.00000000E+00  0.00000000E+00  0.00000000E+00  0.00000000E+00  0.00000000E+00
  0.00000000E+00  0.00000000E+00  0.00000000E+00  0.00000000E+00
Coordinates of each shell                  R   N=          42
 -9.27063921E-02 -5.07413536E-01  1.68901988E+00 -9.27063921E-02 -5.07413536E-01
  1.68901988E+00 -9.27063921E-02 -5.07413536E-01  1.68901988E+00 -9.27063921E-02
 -5.07413536E-01  1.68901988E+00  2.66285730E-01 -2.93941065E+00  9.50891723E-01
  2.66285730E-01 -2.93941065E+00  9.50891723E-01  2.66285730E-01 -2.93941065E+00
  9.50891723E-01  2.66285730E-01 -2.93941065E+00  9.50891723E-01  6.55038960E-01
 -3.46207736E+00 -1.01091997E+00  6.55038960E-01 -3.46207736E+00 -1.01091997E+00
  2.04506842E-01 -4.49634816E+00  2.30435738E+00  2.04506842E-01 -4.49634816E+00
  2.30435738E+00 -4.42483265E-01 -1.29498490E-01  3.69618423E+00 -4.42483265E-01
 -1.29498490E-01  3.69618423E+00
Num ILSW                                   I              100
ILSW                                       I   N=         100
           1           1           0           0           2           0
           0           0           0           0         402          -1
           5           0           0           0           0           0
           0           0           0           0           0           0
           1           1           0           0           0           0
           0           0      100000           0          -1           0
           0           0           0           0           0           0
           0           0           0           1           0           0
           0 -2000000000           1           0           0           0
           0           0         141          52           0           0
           0           0           5           0           0           0
           0           0           0           5           0           1
           0           0           0           0           0           0
           0           0           0           0           0           0
           0           0           0           0           0           0
           0           0           0           0           0           0
           0           0           0           0
Num RLSW                                   I               52
RLSW                                       R   N=          52
  8.00000000E-01  7.20000000E-01  1.00000000E+00  8.10000000E-01  2.00000000E-01
  0.00000000E+00  0.00000000E+00  1.00000000E+00  0.00000000E+00  0.00000000E+00
  0.00000000E+00  0.00000000E+00  1.00000000E+00  0.00000000E+00  0.00000000E+00
  0.00000000E+00  0.00000000E+00  1.00000000E+00  0.00000000E+00  0.00000000E+00
  0.00000000E+00  0.00000000E+00  1.00000000E+00  0.00000000E+00  0.00000000E+00
  0.00000000E+00  0.00000000E+00  1.00000000E+00  0.00000000E+00  0.00000000E+00
  0.00000000E+00  0.00000000E+00  1.00000000E+00  0.00000000E+00  0.00000000E+00
  0.00000000E+00  0.00000000E+00  0.00000000E+00  1.00000000E+00  1.00000000E+00
  0.00000000E+00  1.00000000E+00  0.00000000E+00  0.00000000E+00  0.00000000E+00
  0.00000000E+00  0.00000000E+00  0.00000000E+00  0.00000000E+00  0.00000000E+00
  0.00000000E+00  0.00000000E+00
MxBond                                     I                3
NBond                                      I   N=           5
           2           3           1           1           1
IBond                                      I   N=          15
           2           5           0           1           3           4
           2           0           0           2           0           0
           1           0           0
RBond                                      R   N=          15
  2.00000000E+00  1.00000000E+00  0.00000000E+00  2.00000000E+00  1.00000000E+00
  1.00000000E+00  1.00000000E+00  0.00000000E+00  0.00000000E+00  1.00000000E+00
  0.00000000E+00  0.00000000E+00  1.00000000E+00  0.00000000E+00  0.00000000E+00
Virial Ratio                               R      2.011507311342642E+00
SCF Energy                                 R     -7.789634201408907E+01
Total Energy                               R     -7.789634201408907E+01
S**2                                       R      7.658986517805140E-01
S**2 after annihilation                    R      7.500531033862066E-01
RMS Density                                R      4.481831160040818E-09
Job Status                                 I                1
Nuclear derivative order                   I                0
External E-field                           R   N=          35
  0.00000000E+00  0.00000000E+00  0.00000000E+00  0.00000000E+00  0.00000000E+00
  0.00000000E+00  0.00000000E+00  0.00000000E+00  0.00000000E+00  0.00000000E+00
  0.00000000E+00  0.00000000E+00  0.00000000E+00  0.00000000E+00  0.00000000E+00
  0.00000000E+00  0.00000000E+00  0.00000000E+00  0.00000000E+00  0.00000000E+00
  0.00000000E+00  0.00000000E+00  0.00000000E+00  0.00000000E+00  0.00000000E+00
  0.00000000E+00  0.00000000E+00  0.00000000E+00  0.00000000E+00  0.00000000E+00
  0.00000000E+00  0.00000000E+00  0.00000000E+00  0.00000000E+00  0.00000000E+00
IOpCl                                      I                1
IROHF                                      I                0
Alpha Orbital Energies                     R   N=          36
 -1.02229001E+01 -1.01963566E+01 -7.56183839E-01 -5.72248180E-01 -4.56549501E-01
 -4.06366303E-01 -2.72977340E-01 -2.66363973E-01  5.28840622E-03  1.15578969E-01
  1.40520157E-01  2.04927850E-01  3.18362439E-01  4.88684234E-01  5.44044758E-01
  5.58573055E-01  6.03603412E-01  6.27917746E-01  6.59460082E-01  8.24204232E-01
  8.50934646E-01  9.21007609E-01  9.43855063E-01  1.09400604E+00  1.44429969E+00
  1.54340558E+00  1.73843682E+00  1.81357184E+00  1.90703040E+00  2.05091998E+00
  2.20004076E+00  2.34807553E+00  2.55613439E+00  2.66883264E+00  4.02065358E+00
  4.20716951E+00
Beta Orbital Energies                      R   N=          36
 -1.02066671E+01 -1.01979048E+01 -7.40098369E-01 -5.52342554E-01 -4.40633879E-01
 -3.93009113E-01 -2.63832913E-01 -9.26541948E-02  2.01419454E-02  1.23784729E-01
  1.45564522E-01  2.13430821E-01  3.36147584E-01  5.00399602E-01  5.48455470E-01
  5.94269662E-01  6.36027208E-01  6.41734911E-01  6.70458798E-01  8.32784769E-01
  8.66169341E-01  9.26039249E-01  9.64049212E-01  1.10616451E+00  1.45823102E+00
  1.56720573E+00  1.80064607E+00  1.84451802E+00  1.91841085E+00  2.07605213E+00
  2.21559854E+00  2.36498165E+00  2.58239235E+00  2.69244132E+00  4.04710592E+00
  4.21962858E+00
Alpha MO coefficients                      R   N=        1296
  9.92480612E-01  4.96975991E-02 -1.48138996E-05 -1.46888599E-04  2.06069943E-04
 -1.17417510E-02 -4.90256091E-05  2.13104819E-03 -1.05720467E-03 -1.01243532E-02
 -9.66514668E-03 -9.81686382E-03 -3.63173278E-05 -5.07796718E-05 -9.55323604E-05
  1.36776918E-02  1.58225004E-04  6.09157976E-05 -3.43841037E-04 -1.62915492E-04
  4.55286618E-03 -4.12101415E-04  1.82280833E-03  1.43451862E-03 -2.96723460E-04
 -3.91153935E-04 -3.21563569E-04  1.26336776E-05  6.08631398E-06 -6.78844778E-06
 -4.30742137E-05  5.04846266E-04 -1.70858534E-04 -2.31991741E-04 -2.33778606E-04
  2.55825746E-03 -1.41158029E-02 -1.18938574E-03 -6.01971934E-05  4.05446675E-04
  1.28484933E-04  4.40571284E-03  2.52341663E-04 -1.78861671E-03 -4.44519648E-04
  1.25542889E-05 -2.13226612E-04 -6.84999621E-05  3.12996436E-05  2.03732560E-05
 -4.10822878E-05  9.92686338E-01  4.87444468E-02 -2.10730024E-07 -1.33400706E-05
  2.40467420E-05 -1.27885880E-02  1.14934171E-04 -7.55708901E-04 -3.44579539E-04
 -9.67163336E-03 -9.05815042E-03 -9.28634098E-03 -8.86887677E-05 -8.69129015E-05
  8.65496202E-05 -3.58294403E-04  2.14018130E-03 -3.33183423E-04  2.23390041E-03
 -8.31723876E-05 -5.60096169E-05 -1.55619734E-01  3.13091350E-01  1.29567031E-02
 -1.23212860E-01 -2.70716079E-03  2.41727925E-01  8.20987092E-04 -1.63744433E-02
  5.68596114E-03 -1.64184191E-02  5.02458062E-03 -9.31136860E-04 -2.81079495E-03
 -3.17732757E-03  2.00728324E-03 -1.63283628E-01  3.18458779E-01 -1.45110199E-02
  8.98366141E-02  3.77815139E-02  2.32579940E-01 -7.62586687E-04 -1.94761248E-03
  6.88335030E-03 -1.76323728E-02  7.17677635E-03  1.49855366E-03 -3.49457375E-03
 -4.16050094E-03  3.12347275E-03  8.54180235E-02  2.03928935E-02  9.37800584E-02
  1.92039171E-02  9.33496955E-02  2.05665727E-02 -1.28899892E-01  2.69209612E-01
 -2.90030137E-02  8.22146569E-02  1.33011233E-01  2.65946012E-01 -9.11343539E-03
  3.37326192E-02  3.73741386E-02 -1.17624375E-02 -1.18605936E-02  1.02745007E-02
  5.52896770E-04 -3.76552478E-03 -3.10607995E-03  1.14144411E-01 -2.30561936E-01
 -3.38990577E-02  1.88514861E-01  8.78574868E-02 -2.35039666E-01 -1.21907165E-02
  6.48306321E-02  3.31621551E-02  1.11355378E-02  5.33920807E-03 -1.17926717E-02
 -6.72615148E-04  3.64680804E-03  9.39496745E-03 -1.63953891E-01 -7.61138591E-02
 -1.45704653E-01 -7.26159536E-02  1.86695637E-01  9.49218108E-02 -3.45538176E-02
  7.93387436E-02  5.19682109E-02 -7.10412337E-02 -2.81224273E-01  7.04095418E-02
  1.42395263E-02  1.02054648E-02 -9.45374464E-02 -1.23115295E-03 -1.12389622E-03
 -9.44416644E-03 -1.18221926E-03  6.93498890E-04  7.15291924E-03 -6.92315497E-04
  1.62406944E-03  1.45358946E-02  2.95576025E-01 -2.67920526E-01  1.56682165E-02
  5.25932382E-03  1.09851121E-01 -9.90335167E-02  6.57532961E-04 -3.22669451E-03
 -4.21857876E-03 -1.82962548E-03 -7.11673888E-04  1.40646682E-02  1.03752773E-01
  7.53599808E-02 -2.44902667E-01 -1.89166397E-01 -1.36404045E-01 -1.14745529E-01
 -1.24043184E-02  2.27951852E-02 -5.49361215E-02  3.31459092E-01  1.54027578E-01
  8.33425037E-02 -1.59735019E-02  1.18342849E-01  3.36232752E-02 -2.74368174E-04
 -1.53534599E-02  1.94561852E-02  6.34178383E-04 -4.29179935E-03  5.95950077E-03
  1.87294939E-02 -4.12269439E-02  7.82883594E-02 -2.24293077E-01 -3.26847723E-01
 -3.63837670E-02  2.96501305E-02 -8.46198172E-02 -1.23095610E-01  1.94692142E-03
 -8.64512852E-03  1.88532833E-02 -5.62601570E-05 -4.23299122E-03  7.38648991E-03
  2.32772946E-01  2.03213107E-01 -5.24159225E-02 -4.23392314E-02  1.72370621E-01
  1.59342117E-01  3.86239337E-03 -7.92993540E-03  4.26611885E-01  2.04288604E-02
  8.54556947E-02 -1.89653650E-02  2.87029833E-01  1.28932431E-02  5.64856657E-02
  3.57657411E-03 -2.37293102E-03 -1.01524438E-04 -1.54265065E-02 -2.49536659E-03
 -2.31663750E-03 -8.30523988E-04  2.17140017E-03  3.71560594E-01  4.60586882E-02
  5.83958925E-02 -6.25996404E-04  2.65510514E-01  2.91785322E-02  4.27687910E-02
 -4.04178150E-03  1.72085994E-03  2.00604649E-03  1.46903813E-02  4.84946224E-03
  4.07769026E-03  4.63675451E-03  5.06656816E-03 -7.09642870E-03 -9.67690520E-03
  6.59756509E-03  7.78221963E-03 -7.25887684E-02  1.51265918E-01  4.23171664E-02
  3.87002009E-01 -3.58340294E-01  3.49430788E-01  2.25726594E-02  2.91644871E-01
 -2.20613367E-01 -1.45903261E-03 -4.19262081E-03 -1.55054047E-02  1.31415451E-03
  3.47429484E-03 -1.05041903E-02  2.26911414E-02 -5.64551803E-02  1.80609404E-02
 -1.45255792E-01  9.53059450E-02 -1.15526158E-02  1.06802939E-02 -3.34090161E-02
  4.08206486E-02  1.68232099E-04  1.80378415E-02 -1.17594110E-02  2.69554238E-03
  5.17356892E-03 -2.35719186E-02 -1.08147759E-01 -1.28962577E-01  1.52641737E-01
  2.06877816E-01 -1.43049492E-01 -1.74903100E-01 -7.03308938E-04  1.53322308E-03
 -4.21578626E-01 -4.15152053E-02 -6.65696034E-02  3.14580009E-03 -5.65324446E-01
 -5.40213845E-02 -8.85619408E-02  6.27285433E-03 -3.78510520E-03 -2.64799308E-03
 -2.20765833E-02 -8.48849319E-03 -4.74094873E-03  9.78973686E-04 -1.95446395E-03
  4.27860202E-01  4.30505349E-02  7.19097087E-02 -6.00496722E-03  6.10136562E-01
  6.29431690E-02  1.03647861E-01  5.72658440E-03 -3.86761765E-03 -1.62468716E-03
 -2.23858634E-02 -5.67327480E-03 -4.14992581E-03  2.13230045E-03  6.43723441E-03
  5.23990592E-04  1.18582055E-03 -1.75538288E-03 -5.20735620E-03  5.90221610E-02
 -9.96439380E-02  4.38607758E-02 -7.95193866E-02 -2.33404579E-01 -1.00578155E+00
  1.06687162E-01 -1.42399314E-01 -5.96342519E-01  1.87133392E-03 -8.96863492E-03
  1.51884238E-02  4.19224706E-04 -3.01265729E-03  4.59445463E-03  7.58283558E-02
 -1.21700581E-01 -3.64782970E-03  2.05131714E-01 -1.05305458E-01 -1.14678311E+00
 -4.48918124E-02  6.13665538E-01 -1.08036107E-01  3.58224024E-03  5.02699361E-03
  2.67659904E-03  2.43809226E-03  1.91165998E-03 -1.57504755E-02 -7.18342403E-04
  4.24070423E-01  7.93681371E-02  1.33542798E+00  7.85647601E-02  1.32136015E+00
  6.57172470E-02 -8.89729988E-02  2.12631311E-02  2.55018849E-02 -1.65168840E-01
 -9.49869862E-01  1.93090831E-02  1.45708665E-01 -2.60274129E-01  7.93780521E-03
  1.20535413E-03  7.95190309E-03 -2.47723731E-03 -1.78363486E-03  1.79499558E-02
 -1.14576182E-01  1.70963102E-01  4.63000620E-02 -8.36370486E-02 -2.07747527E-01
  1.76588475E+00  1.12491539E-01 -1.42662266E-01 -5.26927392E-01 -8.94383046E-03
  7.05929717E-04 -1.18291943E-02  6.47610725E-04  1.82414122E-03 -1.20146946E-02
 -1.00942698E-01 -1.66725040E+00 -1.46635536E-02 -4.70334229E-01  8.34206297E-02
  9.62650119E-01 -6.50983326E-02  1.05633561E-01 -2.59972692E-02 -1.28153923E-02
  1.74512081E-01  1.36904685E+00 -9.57010809E-02 -4.48434108E-01  8.74949530E-01
 -6.13304289E-03 -1.13622539E-02  1.39584159E-02 -2.53636779E-03 -5.55802119E-03
  1.80617970E-02  3.19719556E-02 -1.30358778E-02  4.87270261E-02  1.22702178E-01
 -3.66573800E-01 -7.48552349E-01  2.47934548E-01  5.42652587E-02 -1.53814196E+00
  5.99001105E-03  2.66679620E-03 -1.10349186E-03 -8.64268463E-04  5.05039515E-04
  7.98602831E-03 -3.76129485E-03 -1.37810536E+00  2.07311003E-02  1.60516759E+00
  2.99580116E-02 -1.27819607E+00 -8.64191337E-02  1.10354440E-01  5.18899403E-02
 -1.50023671E-01 -2.36853590E-01  2.76171109E+00  3.69217126E-01 -2.16746847E+00
 -9.83013135E-01 -2.77315935E-03 -1.53585121E-02  1.44263673E-02  3.07605280E-03
 -2.01728532E-03 -1.11362247E-02  7.69847158E-02 -5.11598604E-02  1.93721727E-02
 -2.06302706E-01  1.23835189E-02 -2.53726920E+00  3.32804693E-01 -2.54638728E+00
 -4.84378756E-01  7.26968785E-03  3.01188157E-02 -2.94070194E-02 -3.55243569E-03
  6.69806801E-03  5.24905734E-03 -9.04089630E-02 -2.27983866E-01 -5.19609354E-02
 -7.62762054E-01  7.15168814E-02  6.70966377E-01  2.90784165E-02  1.45169112E-01
  7.53608538E-02 -5.73485915E-01 -1.12770110E-01  1.50305755E-01 -1.52236575E-01
  9.72196180E-01  3.46740940E-01 -8.46054061E-03  6.93648448E-02 -2.69933037E-02
 -1.47782549E-02 -3.37940569E-04  3.52406987E-02  1.67403280E-02  1.87258847E-01
 -7.77343715E-02  5.25299342E-01  1.64756231E-01  3.49988754E-01  1.50986398E-01
 -9.26499941E-01 -3.61964733E-01 -3.95781163E-03  6.59712999E-02 -2.44569325E-02
 -1.51977169E-02 -6.05711905E-04  4.38861406E-02 -5.84571665E-02 -2.14950028E-01
 -7.69348361E-02 -7.22777179E-02 -7.97251614E-02 -8.82786570E-02  3.02641217E-05
 -2.26136235E-03  7.56710537E-01  7.61276267E-02  1.18326875E-01  3.16260611E-04
 -7.21221095E-01 -7.24568471E-02 -1.11957968E-01  1.29043617E-02 -8.21558340E-03
 -5.26918559E-03 -4.63881031E-02 -1.63287013E-02 -9.65416574E-03  1.71590224E-04
 -2.96359118E-03  6.77142033E-01  6.66581267E-02  1.11915479E-01  1.20517600E-03
 -5.61766549E-01 -5.29421170E-02 -9.07219672E-02 -1.25758763E-02  7.76811846E-03
  4.18437693E-03  4.77963063E-02  1.34062067E-02  9.27797041E-03  1.55911663E-03
  3.31866293E-03 -7.82632597E-04  3.93308171E-04 -1.38593684E-03  1.55617154E-03
 -1.66894474E-02  3.21954866E-01  6.79746046E-02  4.74545318E-01 -7.04448153E-01
 -3.31021345E-01 -1.59647569E-01 -1.50974714E-01  1.08804280E+00  2.76366825E-02
  7.20040773E-02 -3.16878558E-02 -4.42385320E-03  1.08208499E-02  1.22001358E-04
 -5.94600112E-03  1.06595007E-01 -4.50745302E-03  2.13157009E-01 -1.40322662E-01
  1.06798707E-01 -5.53055018E-02 -1.53432315E-02  3.69717497E-01  7.29445283E-03
 -2.04722221E-02  2.42742255E-02  2.38579997E-04 -5.87364410E-03  1.73568119E-02
  2.63949825E-01  1.51755317E-01 -1.91665623E-01 -6.00748067E-02 -2.80665606E-01
 -2.31821219E-01 -3.29443241E-02 -6.23834363E-01  3.14483236E-03 -3.22513834E-01
  1.61219651E-01  1.14091227E+00  3.83564384E-02  1.10777322E-01 -2.66042048E-01
  1.88478430E-02 -7.44923233E-02 -1.20320739E-01  2.43131478E-02  3.43620136E-02
 -8.04978193E-02  3.43090738E-03 -4.43589355E-01  8.54802703E-02 -1.78402936E-01
 -4.08454795E-01  3.75577254E-01 -8.49156671E-02 -4.27978689E-01  7.60230197E-01
  1.12048456E-02 -6.22628061E-02 -2.26852357E-02 -8.83013618E-03 -4.92773518E-03
  1.06611752E-01  1.03150175E-01 -3.51821324E-02 -4.84091076E-01 -1.65873056E-01
 -5.24696028E-01  1.68210068E-01 -1.86824325E-04 -1.62765694E-03  7.11345998E-01
  6.31359492E-02  1.16061781E-01  2.48567203E-03 -1.07788452E+00 -1.02774960E-01
 -1.79922808E-01 -4.36285969E-03  2.31913839E-03  1.06835716E-03  2.13709279E-02
  2.31528966E-03  3.40189722E-03  2.90245630E-04  1.05670667E-03 -8.07230709E-01
 -8.44333848E-02 -1.35541613E-01 -2.30656514E-03  1.14969819E+00  1.13835556E-01
  1.91009198E-01 -2.45611811E-03  2.78442182E-03  6.07676517E-04  8.91230034E-03
  2.14297865E-03  2.01679621E-03  2.88960371E-04 -1.70383167E-03  1.51123978E-03
 -2.39048127E-03  6.67951024E-04  2.83775564E-03  4.29680109E-02 -4.04357791E-01
 -7.30243765E-02  5.46348756E-01  1.36447919E-01  6.30517271E-01  5.36766062E-02
 -5.27918056E-01 -6.39194517E-02 -2.68999807E-02  6.20294797E-02 -3.38411654E-02
 -2.08832146E-02 -5.07998677E-03  6.16455654E-02 -8.90493245E-02 -3.21026928E-01
 -8.84635968E-02  4.76583078E-01  2.29622834E-01  8.49144549E-01  1.74031227E-01
 -8.14747182E-01 -4.92003971E-01  8.99332471E-02 -1.45255393E-01 -1.24750443E-01
  3.29387535E-02  4.63164890E-02 -2.93075111E-02 -5.91359238E-01 -2.09792141E-01
 -4.60435777E-01 -1.15812270E-01  7.30566491E-02 -5.54631684E-02  2.96660191E-02
  3.80198870E-01 -1.12285347E-01  2.46635326E-01  5.61898784E-01 -5.60263140E-01
  4.02230142E-01 -4.97671014E-01 -2.21901232E+00 -5.41686867E-02  1.10084834E-01
  5.82679281E-02 -1.97930458E-02 -2.19798381E-02  5.99093437E-03 -3.10891253E-03
  4.83547602E-01  6.41762157E-02  5.53079333E-01 -7.12625987E-01 -1.23800464E+00
 -2.47181952E-01 -1.50889379E+00  2.39555626E+00 -1.64566630E-03 -2.51039506E-02
  8.26694581E-02  4.18448117E-03 -1.63272808E-02 -1.18195815E-02  8.50852502E-02
  1.25741675E+00  9.85110678E-02 -1.46501808E+00  6.59114435E-02  1.41231578E+00
 -3.43143946E-03  4.75514954E-01 -9.75069882E-02  2.38982503E-01  4.77130116E-01
 -6.25170669E-01  2.06225649E-01 -6.33492769E-01 -9.32658166E-01  1.58675226E-02
  1.50508081E-01 -7.58191271E-02 -1.98305633E-03  2.54548706E-02 -7.85747138E-02
  4.70837753E-03  3.20849250E-01 -1.12246097E-01 -3.90822211E-02  6.94138997E-01
 -8.97906445E-01  2.15861117E-01 -1.45643895E-01 -1.20018691E+00  1.55336039E-03
 -8.14694172E-02  1.21721927E-01 -1.02723072E-02 -3.60356638E-02  1.16217236E-01
  5.32538262E-01 -1.20690872E+00 -3.94609511E-01  1.05551608E+00 -4.47501981E-01
  1.41387164E+00 -8.37145498E-03 -5.52765997E-01 -1.88607798E-02  1.37618599E-01
  3.43580197E-02  1.40880827E+00  6.14504620E-02 -5.67417827E-01 -3.76175308E-02
  4.01722501E-03 -2.09938993E-02 -4.85851204E-02  1.79693932E-03  9.18807199E-03
  1.16979718E-02  3.01016369E-02 -1.00869720E+00 -9.49900725E-02  5.92726449E-01
  1.95897870E-01  1.50976923E+00  2.12477864E-01 -1.21870867E+00 -5.16016109E-01
 -1.08110988E-01 -1.17424348E-01  7.44969735E-02  1.34627000E-02 -2.77175032E-02
 -8.32850198E-02  6.14773008E-01 -1.42046054E+00  6.65115300E-01 -1.31832505E+00
 -5.33679351E-02 -7.65265102E-02  3.70230328E-02 -6.75627082E-01  5.06375083E-02
 -2.31061520E-02 -3.06619453E-01  1.50461173E+00  6.20911769E-02 -1.82486146E-01
 -2.59836436E-01 -1.53827102E-01 -1.67719310E-02  1.10784209E-01 -6.15669702E-03
 -4.29515458E-02 -5.47313897E-02 -3.75706078E-03  3.18927219E-01 -3.40070692E-02
  3.42037373E-02  1.89057777E-01 -1.05644068E+00 -2.25916380E-02 -4.75660274E-01
  4.15837288E-01  1.24852193E-02 -7.49771194E-02  1.07519771E-01 -4.54699588E-03
 -2.98487500E-02  7.95471250E-02  5.57120631E-01 -1.40466773E-01 -5.24969362E-01
  3.32569527E-01  9.09727119E-01 -9.60999963E-01  4.14222216E-02  1.39690693E+00
  2.17070714E-02 -2.22021545E-01  4.67029707E-03 -5.14940171E+00 -1.60539819E-01
  2.03419349E+00 -2.74520495E-01 -1.36674491E-02  4.96539539E-03  1.89490752E-01
  8.39899307E-03 -2.98517165E-02 -6.56839869E-02 -3.65936815E-02 -1.48585253E+00
  2.69531520E-02 -1.33887337E-01 -8.60504028E-02  5.37295117E+00 -3.36698209E-01
  1.42147803E+00  1.23534326E+00 -2.40269543E-02 -4.71199090E-02 -1.20661187E-01
 -1.33862476E-02  8.07205862E-03  9.47348600E-02  9.16393631E-02 -2.15282531E-01
 -2.99581723E-01 -6.12958811E-01  3.43043930E-01  5.64678176E-01 -1.57226359E-04
 -4.76537192E-04  1.50489200E-01  1.50406467E-02  2.54132771E-02  2.57744289E-03
 -2.47289740E-02 -3.98810656E-03 -2.11053771E-03 -1.45529252E-01  9.83324570E-02
  4.68131141E-02  5.75404975E-01  1.68537235E-01  1.16327920E-01 -1.81412475E-05
  1.31833680E-03  1.58958337E-01  1.46885630E-02  2.62842031E-02 -4.44897930E-03
 -2.90910510E-02 -1.44241382E-03 -7.91615301E-03  1.51367666E-01 -9.66243098E-02
 -5.49526528E-02 -5.66037832E-01 -1.60952768E-01 -1.10928644E-01 -1.81584287E-03
  8.54143834E-04 -5.97958720E-05  2.82514573E-03 -2.89352744E-03  7.46946368E-04
 -7.44922413E-05 -3.14514312E-03  2.73177021E-03  5.71420709E-04 -2.71926585E-03
  9.13822400E-03 -7.71827835E-03 -2.02840286E-03  6.07367619E-03 -1.48005057E-01
 -3.09160168E-02  1.79036116E-01 -2.17215875E-01  6.38146945E-01  2.18109886E-02
  1.02543754E-04  1.74216063E-03 -7.34898253E-04  7.03351586E-04 -3.10650624E-03
 -6.11257158E-03  3.36025121E-03  1.78830131E-03 -4.48943240E-03 -1.42893855E-01
 -3.71979762E-02  1.80200166E-01 -2.05538096E-01  6.01726093E-01  3.36579417E-02
 -3.43656561E-03  2.05939727E-03  4.69782829E-03  7.85170783E-04  1.45023273E-04
 -6.41954181E-03  6.77245783E-03  1.72490681E-01 -2.26518717E-02 -1.16745581E-02
  1.42582369E-01 -4.94438376E-01  1.27797279E-01  6.22273749E-02 -8.29326525E-01
  5.13403949E-01 -3.56898893E-01 -1.69481839E-01 -3.20026976E-02  1.06213435E-01
  6.93070384E-01  1.12438616E-02  8.85160819E-02 -1.31459285E-02 -1.08876449E-02
  8.07108535E-02 -2.90586119E-01 -1.60412700E-01 -2.15078415E-01  1.08906984E+00
  2.22469652E-01  1.16010568E-01 -3.36817516E-01  4.69625775E-02  8.92816723E-02
 -1.17291597E-01  5.76072211E-01  3.71157089E-01 -2.74495567E-01 -2.57711746E-01
  1.24318654E-01  4.43618014E-01  4.81282603E-04  1.13431884E-02 -2.66313403E-03
 -6.49590807E-04  8.64406570E-03 -3.40055052E-02  1.37233271E-02  7.35072554E-03
 -5.49912604E-02  1.73188842E-01  1.25215768E-02 -1.86650705E-01  2.22208517E-01
 -6.48936864E-01  1.37932288E-02  4.71046175E-04  2.55467271E-03 -5.59404861E-04
 -4.37574730E-04  5.39402091E-03 -7.98998334E-03 -1.38933304E-02 -1.84951771E-02
  7.72790181E-02 -1.50963710E-01 -3.24905976E-02  1.83702912E-01 -2.35451704E-01
  6.84359380E-01  2.37875144E-02  3.81202392E-02  2.39762942E-02 -2.37364019E-02
 -2.18935861E-02  6.65459930E-03  2.88655917E-02  2.95058204E-02  1.58518244E-01
  2.73902327E-02 -6.42872321E-02 -1.34485537E-01 -5.03319190E-01  1.94253431E-02
  6.70445546E-02 -1.72852504E-01  4.99753539E-01  7.87073272E-02 -4.88255054E-01
  1.09785228E-01  2.12421837E-01 -3.42010196E-01  2.56937531E-02  1.98555667E-01
  1.84873746E-03  1.47612013E-01 -1.02872673E-01 -4.32097475E-01 -2.25582612E-03
  2.21980869E-01 -1.24372479E-01  5.91255166E-01 -3.55163600E-01 -1.57612882E-01
  4.53893611E-02  1.09260120E-01  4.03770850E-01 -4.02034295E-02  1.31192933E-01
  5.64805088E-01  8.49597551E-02  5.32740921E-01  5.64704352E-02 -2.06342709E-02