 Entering Gaussian System, Link 0=g16
 Initial command:
 /home/kangmg/compchem/gaussian/g16/l1.exe "/home/kangmg/compchem/gaussian/scratch/Gau-32505.inp" -scrdir="/home/kangmg/compchem/gaussian/scratch/"
 Entering Link 1 = /home/kangmg/compchem/gaussian/g16/l1.exe PID=     32507.
  
 Copyright (c) 1988,1990,1992,1993,1995,1998,2003,2009,2016,
            Gaussian, Inc.  All Rights Reserved.
  
 This is part of the Gaussian(R) 16 program.  It is based on
 the Gaussian(R) 09 system (copyright 2009, Gaussian, Inc.),
 the Gaussian(R) 03 system (copyright 2003, Gaussian, Inc.),
 the Gaussian(R) 98 system (copyright 1998, Gaussian, Inc.),
 the Gaussian(R) 94 system (copyright 1995, Gaussian, Inc.),
 the Gaussian 92(TM) system (copyright 1992, Gaussian, Inc.),
 the Gaussian 90(TM) system (copyright 1990, Gaussian, Inc.),
 the Gaussian 88(TM) system (copyright 1988, Gaussian, Inc.),
 the Gaussian 86(TM) system (copyright 1986, Carnegie Mellon
 University), and the Gaussian 82(TM) system (copyright 1983,
 Carnegie Mellon University). Gaussian is a federally registered
 trademark of Gaussian, Inc.
  
 This software contains proprietary and confidential information,
 including trade secrets, belonging to Gaussian, Inc.
  
 This software is provided under written license and may be
 used, copied, transmitted, or stored only in accord with that
 written license.
  
 The following legend is applicable only to US Government
 contracts under FAR:
  
                    RESTRICTED RIGHTS LEGEND
  
 Use, reproduction and disclosure by the US Government is
 subject to restrictions as set forth in subparagraphs (a)
 and (c) of the Commercial Computer Software - Restricted
 Rights clause in FAR 52.227-19.
  
 Gaussian, Inc.
 340 Quinnipiac St., Bldg. 40, Wallingford CT 06492
  
  
 ---------------------------------------------------------------
 Warning -- This program may not be used in any manner that
 competes with the business of Gaussian, Inc. or will provide
 assistance to any competitor of Gaussian, Inc.  The licensee
 of this program is prohibited from giving any competitor of
 Gaussian, Inc. access to this program.  By using this program,
 the user acknowledges that Gaussian, Inc. is engaged in the
 business of creating and licensing software in the field of
 computational chemistry and represents and warrants to the
 licensee that it is not a competitor of Gaussian, Inc. and that
 it will not use this program in any manner prohibited above.
 ---------------------------------------------------------------
  

 Cite this work as:
 Gaussian 16, Revision A.03,
 M. J. Frisch, G. W. Trucks, H. B. Schlegel, G. E. Scuseria, 
 M. A. Robb, J. R. Cheeseman, G. Scalmani, V. Barone, 
 G. A. Petersson, H. Nakatsuji, X. Li, M. Caricato, A. V. Marenich, 
 J. Bloino, B. G. Janesko, R. Gomperts, B. Mennucci, H. P. Hratchian, 
 J. V. Ortiz, A. F. Izmaylov, J. L. Sonnenberg, D. Williams-Young, 
 F. Ding, F. Lipparini, F. Egidi, J. Goings, B. Peng, A. Petrone, 
 T. Henderson, D. Ranasinghe, V. G. Zakrzewski, J. Gao, N. Rega, 
 G. Zheng, W. Liang, M. Hada, M. Ehara, K. Toyota, R. Fukuda, 
 J. Hasegawa, M. Ishida, T. Nakajima, Y. Honda, O. Kitao, H. Nakai, 
 T. Vreven, K. Throssell, J. A. Montgomery, Jr., J. E. Peralta, 
 F. Ogliaro, M. J. Bearpark, J. J. Heyd, E. N. Brothers, K. N. Kudin, 
 V. N. Staroverov, T. A. Keith, R. Kobayashi, J. Normand, 
 K. Raghavachari, A. P. Rendell, J. C. Burant, S. S. Iyengar, 
 J. Tomasi, M. Cossi, J. M. Millam, M. Klene, C. Adamo, R. Cammi, 
 J. W. Ochterski, R. L. Martin, K. Morokuma, O. Farkas, 
 J. B. Foresman, and D. J. Fox, Gaussian, Inc., Wallingford CT, 2016.
 
 ******************************************
 Gaussian 16:  ES64L-G16RevA.03 25-Dec-2016
                 8-Jan-2024 
 ******************************************
 %chk=2_fragment2.chk
 -----------------------------------------------
 #p b3lyp/6-31G* em=gd3bj ExtraLinks=L608 nosymm
 -----------------------------------------------
 1/38=1,172=1/1;
 2/12=2,15=1,17=6,18=5,40=1/2;
 3/5=1,6=6,7=1,11=2,25=1,30=1,74=-5,124=41/1,2,3;
 4//1;
 5/5=2,38=5/2;
 6/7=2,8=2,9=2,10=2,28=1/1,8;
 99/5=1,9=1/99;
 Leave Link    1 at Mon Jan  8 21:33:59 2024, MaxMem=           0 cpu:               0.0 elap:               0.0
 (Enter /home/kangmg/compchem/gaussian/g16/l101.exe)
 --------------
 opted geometry
 --------------
 Symbolic Z-matrix:
 Charge =  0 Multiplicity = 2
 C                    -0.04906   0.9332   -1.34881 
 C                    -0.04906   0.9332    0.00947 
 H                    -0.03591   1.89808   0.53027 
 H                    -0.07799   0.01214  -1.93819 
 H                    -0.03224   1.86463  -1.9189 
 
 ITRead=  0  0  0  0  0
 MicOpt= -1 -1 -1 -1 -1
 NAtoms=      5 NQM=        5 NQMF=       0 NMMI=      0 NMMIF=      0
                NMic=       0 NMicF=      0.
                    Isotopes and Nuclear Properties:
 (Nuclear quadrupole moments (NQMom) in fm**2, nuclear magnetic moments (NMagM)
  in nuclear magnetons)

  Atom         1           2           3           4           5
 IAtWgt=          12          12           1           1           1
 AtmWgt=  12.0000000  12.0000000   1.0078250   1.0078250   1.0078250
 NucSpn=           0           0           1           1           1
 AtZEff=  -0.0000000  -0.0000000  -0.0000000  -0.0000000  -0.0000000
 NQMom=    0.0000000   0.0000000   0.0000000   0.0000000   0.0000000
 NMagM=    0.0000000   0.0000000   2.7928460   2.7928460   2.7928460
 AtZNuc=   6.0000000   6.0000000   1.0000000   1.0000000   1.0000000
 Leave Link  101 at Mon Jan  8 21:33:59 2024, MaxMem=   104857600 cpu:               0.2 elap:               0.2
 (Enter /home/kangmg/compchem/gaussian/g16/l202.exe)
                          Input orientation:                          
 ---------------------------------------------------------------------
 Center     Atomic      Atomic             Coordinates (Angstroms)
 Number     Number       Type             X           Y           Z
 ---------------------------------------------------------------------
      1          6           0       -0.049058    0.933201   -1.348805
      2          6           0       -0.049058    0.933201    0.009473
      3          1           0       -0.035911    1.898084    0.530274
      4          1           0       -0.077990    0.012138   -1.938189
      5          1           0       -0.032239    1.864632   -1.918896
 ---------------------------------------------------------------------
                    Distance matrix (angstroms):
                    1          2          3          4          5
     1  C    0.000000
     2  C    1.358279   0.000000
     3  H    2.112372   1.096543   0.000000
     4  H    1.093876   2.154665   3.106746   0.000000
     5  H    1.092177   2.141601   2.449401   1.853159   0.000000
 Symmetry turned off by external request.
 Stoichiometry    C2H3(2)
 Framework group  C1[X(C2H3)]
 Deg. of freedom     9
 Full point group                 C1      NOp   1
 Rotational constants (GHZ):         200.5670799          32.0601323          27.6420875
 Leave Link  202 at Mon Jan  8 21:33:59 2024, MaxMem=   104857600 cpu:               0.0 elap:               0.0
 (Enter /home/kangmg/compchem/gaussian/g16/l301.exe)
 Standard basis: 6-31G(d) (6D, 7F)
 Ernie: Thresh=  0.10000D-02 Tol=  0.10000D-05 Strict=F.
    36 basis functions,    68 primitive gaussians,    36 cartesian basis functions
     8 alpha electrons        7 beta electrons
       nuclear repulsion energy        27.8617318266 Hartrees.
 IExCor=  402 DFT=T Ex+Corr=B3LYP ExCW=0 ScaHFX=  0.200000
 ScaDFX=  0.800000  0.720000  1.000000  0.810000 ScalE2=  1.000000  1.000000
 IRadAn=      5 IRanWt=     -1 IRanGd=            0 ICorTp=0 IEmpDi=141
 NAtoms=    5 NActive=    5 NUniq=    5 SFac= 1.00D+00 NAtFMM=   60 NAOKFM=F Big=F
 Integral buffers will be    131072 words long.
 Raffenetti 2 integral format.
 Two-electron integral symmetry is turned off.
 R6Disp:  Grimme-D3(BJ) Dispersion energy=       -0.0031056684 Hartrees.
 Nuclear repulsion after empirical dispersion term =       27.8586261582 Hartrees.
 Leave Link  301 at Mon Jan  8 21:33:59 2024, MaxMem=   104857600 cpu:               0.1 elap:               0.1
 (Enter /home/kangmg/compchem/gaussian/g16/l302.exe)
 NPDir=0 NMtPBC=     1 NCelOv=     1 NCel=       1 NClECP=     1 NCelD=      1
         NCelK=      1 NCelE2=     1 NClLst=     1 CellRange=     0.0.
 One-electron integrals computed using PRISM.
 NBasis=    36 RedAO= T EigKep=  8.31D-03  NBF=    36
 NBsUse=    36 1.00D-06 EigRej= -1.00D+00 NBFU=    36
 Precomputing XC quadrature grid using
 IXCGrd= 4 IRadAn=           5 IRanWt=          -1 IRanGd=           0 AccXCQ= 0.00D+00.
 Generated NRdTot=       0 NPtTot=           0 NUsed=           0 NTot=          32
 NSgBfM=    36    36    36    36    36 MxSgAt=     5 MxSgA2=     5.
 Leave Link  302 at Mon Jan  8 21:33:59 2024, MaxMem=   104857600 cpu:               0.2 elap:               0.2
 (Enter /home/kangmg/compchem/gaussian/g16/l303.exe)
 DipDrv:  MaxL=1.
 Leave Link  303 at Mon Jan  8 21:33:59 2024, MaxMem=   104857600 cpu:               0.0 elap:               0.0
 (Enter /home/kangmg/compchem/gaussian/g16/l401.exe)
 ExpMin= 1.61D-01 ExpMax= 3.05D+03 ExpMxC= 4.57D+02 IAcc=3 IRadAn=         5 AccDes= 0.00D+00
 Harris functional with IExCor=  402 and IRadAn=       5 diagonalized for initial guess.
 HarFok:  IExCor=  402 AccDes= 0.00D+00 IRadAn=         5 IDoV= 1 UseB2=F ITyADJ=14
 ICtDFT=  3500011 ScaDFX=  1.000000  1.000000  1.000000  1.000000
 FoFCou: FMM=F IPFlag=           0 FMFlag=      100000 FMFlg1=           0
         NFxFlg=           0 DoJE=T BraDBF=F KetDBF=T FulRan=T
         wScrn=  0.000000 ICntrl=       500 IOpCl=  0 I1Cent=   200000004 NGrid=           0
         NMat0=    1 NMatS0=      1 NMatT0=    0 NMatD0=    1 NMtDS0=    0 NMtDT0=    0
 Symmetry not used in FoFCou.
 Harris En= -77.8889492614038    
 JPrj=0 DoOrth=F DoCkMO=F.
 Initial guess <Sx>= 0.0000 <Sy>= 0.0000 <Sz>= 0.5000 <S**2>= 0.7500 S= 0.5000
 Leave Link  401 at Mon Jan  8 21:34:00 2024, MaxMem=   104857600 cpu:               0.7 elap:               0.7
 (Enter /home/kangmg/compchem/gaussian/g16/l502.exe)
 Keep R1 and R2 ints in memory in canonical form, NReq=1307300.
 FoFCou: FMM=F IPFlag=           0 FMFlag=           0 FMFlg1=           0
         NFxFlg=           0 DoJE=F BraDBF=F KetDBF=F FulRan=T
         wScrn=  0.000000 ICntrl=       600 IOpCl=  0 I1Cent=           0 NGrid=           0
         NMat0=    1 NMatS0=    666 NMatT0=    0 NMatD0=    1 NMtDS0=    0 NMtDT0=    0
 Symmetry not used in FoFCou.
 Two-electron integral symmetry not used.
 UHF open shell SCF:
 Using DIIS extrapolation, IDIIS=  1040.
 NGot=   104857600 LenX=   104410073 LenY=   104408336
 Requested convergence on RMS density matrix=1.00D-08 within 128 cycles.
 Requested convergence on MAX density matrix=1.00D-06.
 Requested convergence on             energy=1.00D-06.
 No special actions if energy rises.
 Integral accuracy reduced to 1.0D-05 until final iterations.

 Cycle   1  Pass 0  IDiag  1:
 E= -77.8305491140473    
 DIIS: error= 4.54D-02 at cycle   1 NSaved=   1.
 NSaved= 1 IEnMin= 1 EnMin= -77.8305491140473     IErMin= 1 ErrMin= 4.54D-02
 ErrMax= 4.54D-02  0.00D+00 EMaxC= 1.00D-01 BMatC= 2.28D-01 BMatP= 2.28D-01
 IDIUse=3 WtCom= 5.46D-01 WtEn= 4.54D-01
 Coeff-Com:  0.100D+01
 Coeff-En:   0.100D+01
 Coeff:      0.100D+01
 Gap=     0.307 Goal=   None    Shift=    0.000
 Gap=     0.118 Goal=   None    Shift=    0.000
 GapD=    0.118 DampG=1.000 DampE=0.500 DampFc=0.5000 IDamp=-1.
 Damping current iteration by 5.00D-01
 RMSDP=1.28D-02 MaxDP=1.37D-01              OVMax= 1.98D-01

 Cycle   2  Pass 0  IDiag  1:
 E= -77.8597885937301     Delta-E=       -0.029239479683 Rises=F Damp=T
 DIIS: error= 1.26D-02 at cycle   2 NSaved=   2.
 NSaved= 2 IEnMin= 2 EnMin= -77.8597885937301     IErMin= 2 ErrMin= 1.26D-02
 ErrMax= 1.26D-02  0.00D+00 EMaxC= 1.00D-01 BMatC= 1.47D-02 BMatP= 2.28D-01
 IDIUse=3 WtCom= 8.74D-01 WtEn= 1.26D-01
 Coeff-Com:  0.633D-01 0.937D+00
 Coeff-En:   0.872D-01 0.913D+00
 Coeff:      0.663D-01 0.934D+00
 Gap=     0.269 Goal=   None    Shift=    0.000
 Gap=     0.169 Goal=   None    Shift=    0.000
 RMSDP=2.94D-03 MaxDP=3.95D-02 DE=-2.92D-02 OVMax= 1.48D-01

 Cycle   3  Pass 0  IDiag  1:
 E= -77.8908329893929     Delta-E=       -0.031044395663 Rises=F Damp=F
 DIIS: error= 1.87D-02 at cycle   3 NSaved=   3.
 NSaved= 3 IEnMin= 3 EnMin= -77.8908329893929     IErMin= 2 ErrMin= 1.26D-02
 ErrMax= 1.87D-02  0.00D+00 EMaxC= 1.00D-01 BMatC= 1.82D-02 BMatP= 1.47D-02
 IDIUse=2 WtCom= 0.00D+00 WtEn= 1.00D+00
 Coeff-En:   0.000D+00 0.000D+00 0.100D+01
 Coeff:      0.000D+00 0.000D+00 0.100D+01
 Gap=     0.289 Goal=   None    Shift=    0.000
 Gap=     0.145 Goal=   None    Shift=    0.000
 RMSDP=4.64D-03 MaxDP=6.94D-02 DE=-3.10D-02 OVMax= 1.35D-01

 Cycle   4  Pass 0  IDiag  1:
 E= -77.8756285139916     Delta-E=        0.015204475401 Rises=F Damp=F
 DIIS: error= 3.54D-02 at cycle   4 NSaved=   4.
 NSaved= 4 IEnMin= 3 EnMin= -77.8908329893929     IErMin= 2 ErrMin= 1.26D-02
 ErrMax= 3.54D-02  0.00D+00 EMaxC= 1.00D-01 BMatC= 7.40D-02 BMatP= 1.47D-02
 IDIUse=2 WtCom= 0.00D+00 WtEn= 1.00D+00
 Coeff-En:   0.000D+00 0.000D+00 0.748D+00 0.252D+00
 Coeff:      0.000D+00 0.000D+00 0.748D+00 0.252D+00
 Gap=     0.276 Goal=   None    Shift=    0.000
 Gap=     0.163 Goal=   None    Shift=    0.000
 RMSDP=2.28D-03 MaxDP=3.18D-02 DE= 1.52D-02 OVMax= 6.40D-02

 Cycle   5  Pass 0  IDiag  1:
 E= -77.8951029513382     Delta-E=       -0.019474437347 Rises=F Damp=F
 DIIS: error= 8.85D-03 at cycle   5 NSaved=   5.
 NSaved= 5 IEnMin= 5 EnMin= -77.8951029513382     IErMin= 5 ErrMin= 8.85D-03
 ErrMax= 8.85D-03  0.00D+00 EMaxC= 1.00D-01 BMatC= 4.03D-03 BMatP= 1.47D-02
 IDIUse=3 WtCom= 9.12D-01 WtEn= 8.85D-02
 Coeff-Com: -0.144D-01 0.194D-01 0.992D-01-0.223D+00 0.112D+01
 Coeff-En:   0.000D+00 0.000D+00 0.205D+00 0.000D+00 0.795D+00
 Coeff:     -0.131D-01 0.177D-01 0.109D+00-0.203D+00 0.109D+01
 Gap=     0.271 Goal=   None    Shift=    0.000
 Gap=     0.170 Goal=   None    Shift=    0.000
 RMSDP=7.88D-04 MaxDP=1.24D-02 DE=-1.95D-02 OVMax= 2.62D-02

 Cycle   6  Pass 0  IDiag  1:
 E= -77.8962840601748     Delta-E=       -0.001181108837 Rises=F Damp=F
 DIIS: error= 1.17D-03 at cycle   6 NSaved=   6.
 NSaved= 6 IEnMin= 6 EnMin= -77.8962840601748     IErMin= 6 ErrMin= 1.17D-03
 ErrMax= 1.17D-03  0.00D+00 EMaxC= 1.00D-01 BMatC= 2.82D-05 BMatP= 4.03D-03
 IDIUse=3 WtCom= 9.88D-01 WtEn= 1.17D-02
 Coeff-Com:  0.170D-02-0.801D-03-0.155D+00 0.469D-01-0.435D+00 0.154D+01
 Coeff-En:   0.000D+00 0.000D+00 0.000D+00 0.000D+00 0.000D+00 0.100D+01
 Coeff:      0.168D-02-0.792D-03-0.153D+00 0.464D-01-0.430D+00 0.154D+01
 Gap=     0.271 Goal=   None    Shift=    0.000
 Gap=     0.171 Goal=   None    Shift=    0.000
 RMSDP=2.54D-04 MaxDP=4.62D-03 DE=-1.18D-03 OVMax= 1.01D-02

 Cycle   7  Pass 0  IDiag  1:
 E= -77.8963300582337     Delta-E=       -0.000045998059 Rises=F Damp=F
 DIIS: error= 3.19D-04 at cycle   7 NSaved=   7.
 NSaved= 7 IEnMin= 7 EnMin= -77.8963300582337     IErMin= 7 ErrMin= 3.19D-04
 ErrMax= 3.19D-04  0.00D+00 EMaxC= 1.00D-01 BMatC= 3.13D-06 BMatP= 2.82D-05
 IDIUse=3 WtCom= 9.97D-01 WtEn= 3.19D-03
 Coeff-Com:  0.331D-02-0.236D-02-0.134D-01 0.482D-01-0.243D+00-0.271D+00
 Coeff-Com:  0.148D+01
 Coeff-En:   0.000D+00 0.000D+00 0.000D+00 0.000D+00 0.000D+00 0.000D+00
 Coeff-En:   0.100D+01
 Coeff:      0.330D-02-0.235D-02-0.133D-01 0.480D-01-0.242D+00-0.270D+00
 Coeff:      0.148D+01
 Gap=     0.272 Goal=   None    Shift=    0.000
 Gap=     0.171 Goal=   None    Shift=    0.000
 RMSDP=1.73D-04 MaxDP=2.84D-03 DE=-4.60D-05 OVMax= 6.14D-03

 Cycle   8  Pass 0  IDiag  1:
 E= -77.8963407773343     Delta-E=       -0.000010719101 Rises=F Damp=F
 DIIS: error= 5.22D-05 at cycle   8 NSaved=   8.
 NSaved= 8 IEnMin= 8 EnMin= -77.8963407773343     IErMin= 8 ErrMin= 5.22D-05
 ErrMax= 5.22D-05  0.00D+00 EMaxC= 1.00D-01 BMatC= 1.64D-07 BMatP= 3.13D-06
 IDIUse=1 WtCom= 1.00D+00 WtEn= 0.00D+00
 Coeff-Com: -0.803D-03 0.198D-02 0.184D-01-0.122D-01 0.776D-01-0.180D+00
 Coeff-Com: -0.822D-01 0.118D+01
 Coeff:     -0.803D-03 0.198D-02 0.184D-01-0.122D-01 0.776D-01-0.180D+00
 Coeff:     -0.822D-01 0.118D+01
 Gap=     0.272 Goal=   None    Shift=    0.000
 Gap=     0.171 Goal=   None    Shift=    0.000
 RMSDP=3.38D-05 MaxDP=5.20D-04 DE=-1.07D-05 OVMax= 1.18D-03

 Cycle   9  Pass 0  IDiag  1:
 E= -77.8963411375423     Delta-E=       -0.000000360208 Rises=F Damp=F
 DIIS: error= 4.66D-06 at cycle   9 NSaved=   9.
 NSaved= 9 IEnMin= 9 EnMin= -77.8963411375423     IErMin= 9 ErrMin= 4.66D-06
 ErrMax= 4.66D-06  0.00D+00 EMaxC= 1.00D-01 BMatC= 3.10D-09 BMatP= 1.64D-07
 IDIUse=1 WtCom= 1.00D+00 WtEn= 0.00D+00
 Coeff-Com:  0.919D-04-0.374D-03-0.303D-02 0.126D-02-0.935D-02 0.350D-01
 Coeff-Com: -0.156D-01-0.200D+00 0.119D+01
 Coeff:      0.919D-04-0.374D-03-0.303D-02 0.126D-02-0.935D-02 0.350D-01
 Coeff:     -0.156D-01-0.200D+00 0.119D+01
 Gap=     0.272 Goal=   None    Shift=    0.000
 Gap=     0.171 Goal=   None    Shift=    0.000
 RMSDP=2.86D-06 MaxDP=3.96D-05 DE=-3.60D-07 OVMax= 8.82D-05

 Initial convergence to 1.0D-05 achieved.  Increase integral accuracy.
 Cycle  10  Pass 1  IDiag  1:
 E= -77.8963415480713     Delta-E=       -0.000000410529 Rises=F Damp=F
 DIIS: error= 1.41D-06 at cycle   1 NSaved=   1.
 NSaved= 1 IEnMin= 1 EnMin= -77.8963415480713     IErMin= 1 ErrMin= 1.41D-06
 ErrMax= 1.41D-06  0.00D+00 EMaxC= 1.00D-01 BMatC= 3.48D-10 BMatP= 3.48D-10
 IDIUse=1 WtCom= 1.00D+00 WtEn= 0.00D+00
 Coeff-Com:  0.100D+01
 Coeff:      0.100D+01
 Gap=     0.272 Goal=   None    Shift=    0.000
 Gap=     0.171 Goal=   None    Shift=    0.000
 RMSDP=2.86D-06 MaxDP=3.96D-05 DE=-4.11D-07 OVMax= 8.21D-06

 Cycle  11  Pass 1  IDiag  1:
 E= -77.8963415482267     Delta-E=       -0.000000000155 Rises=F Damp=F
 DIIS: error= 8.92D-07 at cycle   2 NSaved=   2.
 NSaved= 2 IEnMin= 2 EnMin= -77.8963415482267     IErMin= 2 ErrMin= 8.92D-07
 ErrMax= 8.92D-07  0.00D+00 EMaxC= 1.00D-01 BMatC= 1.08D-10 BMatP= 3.48D-10
 IDIUse=1 WtCom= 1.00D+00 WtEn= 0.00D+00
 Coeff-Com:  0.280D+00 0.720D+00
 Coeff:      0.280D+00 0.720D+00
 Gap=     0.272 Goal=   None    Shift=    0.000
 Gap=     0.171 Goal=   None    Shift=    0.000
 RMSDP=2.28D-07 MaxDP=2.11D-06 DE=-1.55D-10 OVMax= 4.63D-06

 Cycle  12  Pass 1  IDiag  1:
 E= -77.8963415482509     Delta-E=       -0.000000000024 Rises=F Damp=F
 DIIS: error= 1.03D-06 at cycle   3 NSaved=   3.
 NSaved= 3 IEnMin= 3 EnMin= -77.8963415482509     IErMin= 2 ErrMin= 8.92D-07
 ErrMax= 1.03D-06  0.00D+00 EMaxC= 1.00D-01 BMatC= 6.38D-11 BMatP= 1.08D-10
 IDIUse=1 WtCom= 1.00D+00 WtEn= 0.00D+00
 Coeff-Com:  0.105D-01 0.414D+00 0.575D+00
 Coeff:      0.105D-01 0.414D+00 0.575D+00
 Gap=     0.272 Goal=   None    Shift=    0.000
 Gap=     0.171 Goal=   None    Shift=    0.000
 RMSDP=1.33D-07 MaxDP=1.95D-06 DE=-2.43D-11 OVMax= 3.71D-06

 Cycle  13  Pass 1  IDiag  1:
 E= -77.8963415482684     Delta-E=       -0.000000000017 Rises=F Damp=F
 DIIS: error= 4.68D-07 at cycle   4 NSaved=   4.
 NSaved= 4 IEnMin= 4 EnMin= -77.8963415482684     IErMin= 4 ErrMin= 4.68D-07
 ErrMax= 4.68D-07  0.00D+00 EMaxC= 1.00D-01 BMatC= 1.47D-11 BMatP= 6.38D-11
 IDIUse=1 WtCom= 1.00D+00 WtEn= 0.00D+00
 Coeff-Com: -0.112D+00-0.175D-01 0.354D+00 0.776D+00
 Coeff:     -0.112D+00-0.175D-01 0.354D+00 0.776D+00
 Gap=     0.272 Goal=   None    Shift=    0.000
 Gap=     0.171 Goal=   None    Shift=    0.000
 RMSDP=6.75D-08 MaxDP=8.11D-07 DE=-1.74D-11 OVMax= 1.60D-06

 Cycle  14  Pass 1  IDiag  1:
 E= -77.8963415482735     Delta-E=       -0.000000000005 Rises=F Damp=F
 DIIS: error= 8.57D-08 at cycle   5 NSaved=   5.
 NSaved= 5 IEnMin= 5 EnMin= -77.8963415482735     IErMin= 5 ErrMin= 8.57D-08
 ErrMax= 8.57D-08  0.00D+00 EMaxC= 1.00D-01 BMatC= 8.27D-13 BMatP= 1.47D-11
 IDIUse=1 WtCom= 1.00D+00 WtEn= 0.00D+00
 Coeff-Com: -0.430D-01-0.378D-01 0.870D-01 0.310D+00 0.684D+00
 Coeff:     -0.430D-01-0.378D-01 0.870D-01 0.310D+00 0.684D+00
 Gap=     0.272 Goal=   None    Shift=    0.000
 Gap=     0.171 Goal=   None    Shift=    0.000
 RMSDP=1.69D-08 MaxDP=1.78D-07 DE=-5.10D-12 OVMax= 3.45D-07

 Cycle  15  Pass 1  IDiag  1:
 E= -77.8963415482738     Delta-E=       -0.000000000000 Rises=F Damp=F
 DIIS: error= 2.37D-08 at cycle   6 NSaved=   6.
 NSaved= 6 IEnMin= 6 EnMin= -77.8963415482738     IErMin= 6 ErrMin= 2.37D-08
 ErrMax= 2.37D-08  0.00D+00 EMaxC= 1.00D-01 BMatC= 4.63D-14 BMatP= 8.27D-13
 IDIUse=1 WtCom= 1.00D+00 WtEn= 0.00D+00
 Coeff-Com:  0.720D-02-0.311D-02-0.324D-01-0.463D-01 0.113D+00 0.962D+00
 Coeff:      0.720D-02-0.311D-02-0.324D-01-0.463D-01 0.113D+00 0.962D+00
 Gap=     0.272 Goal=   None    Shift=    0.000
 Gap=     0.171 Goal=   None    Shift=    0.000
 RMSDP=6.40D-09 MaxDP=9.54D-08 DE=-3.13D-13 OVMax= 1.98D-07

 SCF Done:  E(UB3LYP) =  -77.8963415483     A.U. after   15 cycles
            NFock= 15  Conv=0.64D-08     -V/T= 2.0115
 <Sx>= 0.0000 <Sy>= 0.0000 <Sz>= 0.5000 <S**2>= 0.7659 S= 0.5079
 <L.S>= 0.000000000000E+00
 KE= 7.701015910432D+01 PE=-2.356749515139D+02 EE= 5.290982470305D+01
 Annihilation of the first spin contaminant:
 S**2 before annihilation     0.7659,   after     0.7501
 Leave Link  502 at Mon Jan  8 21:34:09 2024, MaxMem=   104857600 cpu:               8.3 elap:               8.4
 (Enter /home/kangmg/compchem/gaussian/g16/l601.exe)
 Copying SCF densities to generalized density rwf, IOpCl= 1 IROHF=0.

 **********************************************************************

            Population analysis using the SCF density.

 **********************************************************************

 Alpha  occ. eigenvalues --  -10.22290 -10.19636  -0.75618  -0.57225  -0.45655
 Alpha  occ. eigenvalues --   -0.40637  -0.27298  -0.26636
 Alpha virt. eigenvalues --    0.00529   0.11558   0.14052   0.20493   0.31836
 Alpha virt. eigenvalues --    0.48868   0.54404   0.55857   0.60361   0.62792
 Alpha virt. eigenvalues --    0.65946   0.82420   0.85093   0.92101   0.94385
 Alpha virt. eigenvalues --    1.09401   1.44430   1.54341   1.73844   1.81357
 Alpha virt. eigenvalues --    1.90703   2.05092   2.20004   2.34807   2.55613
 Alpha virt. eigenvalues --    2.66883   4.02065   4.20717
  Beta  occ. eigenvalues --  -10.20667 -10.19791  -0.74010  -0.55234  -0.44063
  Beta  occ. eigenvalues --   -0.39301  -0.26383
  Beta virt. eigenvalues --   -0.09265   0.02014   0.12378   0.14556   0.21343
  Beta virt. eigenvalues --    0.33615   0.50040   0.54846   0.59427   0.63603
  Beta virt. eigenvalues --    0.64174   0.67046   0.83278   0.86617   0.92604
  Beta virt. eigenvalues --    0.96405   1.10617   1.45823   1.56721   1.80065
  Beta virt. eigenvalues --    1.84452   1.91841   2.07605   2.21560   2.36498
  Beta virt. eigenvalues --    2.58239   2.69244   4.04711   4.21963
          Condensed to atoms (all electrons):
               1          2          3          4          5
     1  C    5.010636   0.651734  -0.056777   0.368906   0.366205
     2  C    0.651734   5.215979   0.342614  -0.034463  -0.032946
     3  H   -0.056777   0.342614   0.559951   0.004564  -0.005826
     4  H    0.368906  -0.034463   0.004564   0.539401  -0.039633
     5  H    0.366205  -0.032946  -0.005826  -0.039633   0.545279
          Atomic-Atomic Spin Densities.
               1          2          3          4          5
     1  C   -0.185207  -0.021620   0.007136   0.009138   0.008616
     2  C   -0.021620   1.134708  -0.029518  -0.008588  -0.019583
     3  H    0.007136  -0.029518   0.053403   0.001235  -0.007403
     4  H    0.009138  -0.008588   0.001235   0.041348  -0.012996
     5  H    0.008616  -0.019583  -0.007403  -0.012996   0.102915
 Mulliken charges and spin densities:
               1          2
     1  C   -0.340703  -0.181937
     2  C   -0.142918   1.055399
     3  H    0.155475   0.024853
     4  H    0.161225   0.030137
     5  H    0.166921   0.071549
 Sum of Mulliken charges =  -0.00000   1.00000
 Mulliken charges and spin densities with hydrogens summed into heavy atoms:
               1          2
     1  C   -0.012557  -0.080252
     2  C    0.012557   1.080252
 Electronic spatial extent (au):  <R**2>=            155.9208
 Charge=             -0.0000 electrons
 Dipole moment (field-independent basis, Debye):
    X=             -0.0034    Y=              0.6338    Z=             -0.4830  Tot=              0.7969
 Quadrupole moment (field-independent basis, Debye-Ang):
   XX=            -14.3760   YY=            -10.3999   ZZ=            -11.0501
   XY=              0.0261   XZ=              0.0451   YZ=             -0.1231
 Traceless Quadrupole moment (field-independent basis, Debye-Ang):
   XX=             -2.4340   YY=              1.5421   ZZ=              0.8919
   XY=              0.0261   XZ=              0.0451   YZ=             -0.1231
 Octapole moment (field-independent basis, Debye-Ang**2):
  XXX=              2.1070  YYY=            -31.9582  ZZZ=             24.0754  XYY=              0.6170
  XXY=            -14.0904  XXZ=             10.6567  XZZ=              0.5015  YZZ=            -10.6495
  YYZ=              8.1558  XYZ=             -0.0467
 Hexadecapole moment (field-independent basis, Debye-Ang**3):
 XXXX=            -15.3626 YYYY=            -85.1758 ZZZZ=            -95.9103 XXXY=              1.9634
 XXXZ=             -1.6315 YYYX=              1.6726 YYYZ=             22.1121 ZZZX=             -1.1565
 ZZZY=             21.3315 XXYY=            -20.5291 XXZZ=            -21.3797 YYZZ=            -27.6532
 XXYZ=              9.5689 YYXZ=             -0.5101 ZZXY=              0.5905
 N-N= 2.785862615824D+01 E-N=-2.356749509378D+02  KE= 7.701015910432D+01
                          Isotropic Fermi Contact Couplings
        Atom                 a.u.       MegaHertz       Gauss      10(-4) cm-1
     1  C(13)             -0.00701      -7.88278      -2.81277      -2.62941
     2  C(13)              0.45141     507.46883     181.07750     169.27338
     3  H(1)               0.02328     104.05559      37.12962      34.70921
     4  H(1)               0.01509      67.46466      24.07307      22.50379
     5  H(1)               0.03253     145.42232      51.89030      48.50766
 --------------------------------------------------------
       Center         ----  Spin Dipole Couplings  ----
                      3XX-RR        3YY-RR        3ZZ-RR
 --------------------------------------------------------
     1   Atom       -0.184573      0.035754      0.148819
     2   Atom       -0.310632      0.464122     -0.153490
     3   Atom       -0.050991      0.049475      0.001516
     4   Atom       -0.012596     -0.010929      0.023526
     5   Atom       -0.010950     -0.001774      0.012724
 --------------------------------------------------------
                        XY            XZ            YZ
 --------------------------------------------------------
     1   Atom        0.004680      0.001556     -0.025792
     2   Atom        0.019971     -0.013800     -0.604602
     3   Atom        0.001489      0.000307      0.046169
     4   Atom        0.000110      0.000308      0.005077
     5   Atom        0.000308     -0.000059     -0.003529
 --------------------------------------------------------


 ---------------------------------------------------------------------------------
              Anisotropic Spin Dipole Couplings in Principal Axis System
 ---------------------------------------------------------------------------------

       Atom             a.u.   MegaHertz   Gauss  10(-4) cm-1        Axes

              Baa    -0.1847   -24.783    -8.843    -8.267  0.9997 -0.0220 -0.0064
     1 C(13)  Bbb     0.0303     4.061     1.449     1.354  0.0228  0.9770  0.2122
              Bcc     0.1544    20.722     7.394     6.912  0.0016 -0.2123  0.9772
 
              Baa    -0.5236   -70.261   -25.071   -23.437  0.0063  0.5220  0.8529
     2 C(13)  Bbb    -0.3111   -41.751   -14.898   -13.927  0.9998 -0.0213  0.0057
              Bcc     0.8347   112.013    39.969    37.363  0.0212  0.8527 -0.5220
 
              Baa    -0.0510   -27.220    -9.713    -9.080  0.9997 -0.0203  0.0120
     3 H(1)   Bbb    -0.0265   -14.149    -5.049    -4.720 -0.0208 -0.5188  0.8546
              Bcc     0.0775    41.370    14.762    13.799  0.0111  0.8546  0.5191
 
              Baa    -0.0126    -6.725    -2.400    -2.243  0.9976 -0.0692  0.0012
     4 H(1)   Bbb    -0.0117    -6.220    -2.219    -2.075  0.0687  0.9873 -0.1431
              Bcc     0.0243    12.945     4.619     4.318  0.0087  0.1428  0.9897
 
              Baa    -0.0110    -5.848    -2.087    -1.951  0.9994 -0.0346 -0.0027
     5 H(1)   Bbb    -0.0026    -1.375    -0.491    -0.459  0.0343  0.9738  0.2247
              Bcc     0.0135     7.223     2.577     2.409 -0.0052 -0.2247  0.9744
 

 ---------------------------------------------------------------------------------

 No NMR shielding tensors so no spin-rotation constants.
 Leave Link  601 at Mon Jan  8 21:34:09 2024, MaxMem=   104857600 cpu:               0.2 elap:               0.2
 (Enter /home/kangmg/compchem/gaussian/g16/l608.exe)
 IExCor=  402 DFT=T Ex+Corr=B3LYP ExCW=0 ScaHFX=  0.200000
 ScaDFX=  0.800000  0.720000  1.000000  0.810000 ScalE2=  1.000000  1.000000
 IRadAn=      5 IRanWt=     -1 IRanGd=            0 ICorTp=0 IEmpDi=  4
 A total of   1 models will be applied.

 Results using SCF density:
 FoFJK:  IHMeth= 0 ICntrl=     500 DoSepK=F KAlg= 0 I1Cent=           0 FoldK=F
 IRaf=         0 NMat=       2 IRICut=       1 DoRegI=T DoRafI=F ISym2E= 0 IDoP0=0 IntGTp=1.
 FoFCou: FMM=F IPFlag=           0 FMFlag=           0 FMFlg1=           0
         NFxFlg=           0 DoJE=F BraDBF=F KetDBF=F FulRan=T
         wScrn=  0.000000 ICntrl=       500 IOpCl=  1 I1Cent=           0 NGrid=           0
         NMat0=    2 NMatS0=      2 NMatT0=    0 NMatD0=    2 NMtDS0=    0 NMtDT0=    0
 Symmetry not used in FoFCou.
 ET=   77.010159 EV= -235.674951 EJ=   64.759320 EK=  -11.321293 ENuc=   27.858626

 A=0 I=   1 IExCor=  402 IRadAn=       5 ScaHFX=  0.200000
            ScaDFX=  0.800000  0.720000  1.000000  0.810000
 HFx=  0.000000  0.000000  1.000000  0.000000  0.000000
 DFx=  0.000000  0.000000  1.000000  0.000000  0.000000
 DFc=  0.000000  0.000000  1.000000  0.000000  0.000000
            ENTVJ=  -66.046845 Ex=  -11.247198 Ec=   -0.602298 ETotM2e= -140.3914032768  ETot=  -77.8963415483
 Leave Link  608 at Mon Jan  8 21:34:09 2024, MaxMem=   104857600 cpu:               0.7 elap:               0.7
 (Enter /home/kangmg/compchem/gaussian/g16/l9999.exe)

 Test job not archived.
 1\1\GINC-KANGMG-22\SP\UB3LYP\6-31G(d)\C2H3(2)\KANGMG\08-Jan-2024\0\\#p
  b3lyp/6-31G* em=gd3bj ExtraLinks=L608 nosymm\\opted geometry\\0,2\C,0
 ,-0.04905811,0.93320051,-1.34880531\C,0,-0.04905811,0.93320051,0.00947
 319\H,0,-0.03591138,1.89808418,0.53027436\H,0,-0.07798974,0.01213844,-
 1.93818875\H,0,-0.03223856,1.86463239,-1.91889566\\Version=ES64L-G16Re
 vA.03\HF=-77.8963415\S2=0.765899\S2-1=0.\S2A=0.750053\RMSD=6.401e-09\D
 ipole=-0.0013292,0.2493743,-0.1900394\Quadrupole=-1.809615,1.1464962,0
 .6631187,0.0193799,0.0335258,-0.0915099\PG=C01 [X(C2H3)]\\@


 THE MOST BEAUTIFUL EXPERIENCE WE CAN HAVE IS THE MYSTERIOUS.
 IT IS THE FUNDAMENTAL EMOTION WHICH STANDS AT AT THE CRADLE 
 OF TRUE ART AND TRUE SCIENCE.

                                    -- ALBERT EINSTEIN
 Job cpu time:       0 days  0 hours  0 minutes 10.6 seconds.
 Elapsed time:       0 days  0 hours  0 minutes 10.6 seconds.
 File lengths (MBytes):  RWF=      6 Int=      0 D2E=      0 Chk=      1 Scr=      1
 Normal termination of Gaussian 16 at Mon Jan  8 21:34:09 2024.
