Generated by Multiwfn
SP        UB3LYP                                              6-31G(d)
Number of atoms                            I               10
Charge                                     I                0
Multiplicity                               I                1
Number of electrons                        I               30
Number of alpha electrons                  I               15
Number of beta electrons                   I               15
Number of basis functions                  I               72
Number of independent functions            I               72
Atomic numbers                             I   N=          10
           6           6           1           1           1           6
           6           1           1           1
Nuclear charges                            R   N=          10
  6.00000000E+00  6.00000000E+00  1.00000000E+00  1.00000000E+00  1.00000000E+00
  6.00000000E+00  6.00000000E+00  1.00000000E+00  1.00000000E+00  1.00000000E+00
Current cartesian coordinates              R   N=          30
 -9.27063921E-02 -5.07413536E-01  1.68901988E+00  2.66285730E-01 -2.93941065E+00
  9.50891723E-01  6.55038960E-01 -3.46207736E+00 -1.01091997E+00  2.04506842E-01
 -4.49634816E+00  2.30435738E+00 -4.42483265E-01 -1.29498490E-01  3.69618423E+00
 -9.27063921E-02  1.76349338E+00 -2.54887263E+00 -9.27063921E-02  1.76349338E+00
  1.79017346E-02 -6.78626730E-02  3.58685926E+00  1.00207331E+00 -1.47379249E-01
  2.29383272E-02 -3.66264592E+00 -6.09220491E-02  3.52364454E+00 -3.62618726E+00
Translation vectors                        R   N=           0
Number of contracted shells                I               36
Number of primitive shells                 I               84
Highest angular momentum                   I                2
Largest degree of contraction              I                6
Shell types                                I   N=          36
           0           0           1           0           1           2
           0           0           1           0           1           2
           0           0           0           0           0           0
           0           0           1           0           1           2
           0           0           1           0           1           2
           0           0           0           0           0           0
Number of primitives per shell             I   N=          36
           6           3           3           1           1           1
           6           3           3           1           1           1
           3           1           3           1           3           1
           6           3           3           1           1           1
           6           3           3           1           1           1
           3           1           3           1           3           1
Shell to atom map                          I   N=          36
           1           1           1           1           1           1
           2           2           2           2           2           2
           3           3           4           4           5           5
           6           6           6           6           6           6
           7           7           7           7           7           7
           8           8           9           9          10          10
Primitive exponents                        R   N=          84
  3.04752488E+03  4.57369518E+02  1.03948685E+02  2.92101553E+01  9.28666296E+00
  3.16392696E+00  7.86827235E+00  1.88128854E+00  5.44249258E-01  7.86827235E+00
  1.88128854E+00  5.44249258E-01  1.68714478E-01  1.68714478E-01  8.00000000E-01
  3.04752488E+03  4.57369518E+02  1.03948685E+02  2.92101553E+01  9.28666296E+00
  3.16392696E+00  7.86827235E+00  1.88128854E+00  5.44249258E-01  7.86827235E+00
  1.88128854E+00  5.44249258E-01  1.68714478E-01  1.68714478E-01  8.00000000E-01
  1.87311370E+01  2.82539436E+00  6.40121692E-01  1.61277759E-01  1.87311370E+01
  2.82539436E+00  6.40121692E-01  1.61277759E-01  1.87311370E+01  2.82539436E+00
  6.40121692E-01  1.61277759E-01  3.04752488E+03  4.57369518E+02  1.03948685E+02
  2.92101553E+01  9.28666296E+00  3.16392696E+00  7.86827235E+00  1.88128854E+00
  5.44249258E-01  7.86827235E+00  1.88128854E+00  5.44249258E-01  1.68714478E-01
  1.68714478E-01  8.00000000E-01  3.04752488E+03  4.57369518E+02  1.03948685E+02
  2.92101553E+01  9.28666296E+00  3.16392696E+00  7.86827235E+00  1.88128854E+00
  5.44249258E-01  7.86827235E+00  1.88128854E+00  5.44249258E-01  1.68714478E-01
  1.68714478E-01  8.00000000E-01  1.87311370E+01  2.82539436E+00  6.40121692E-01
  1.61277759E-01  1.87311370E+01  2.82539436E+00  6.40121692E-01  1.61277759E-01
  1.87311370E+01  2.82539436E+00  6.40121692E-01  1.61277759E-01
Contraction coefficients                   R   N=          84
  1.83473713E-03  1.40373228E-02  6.88426223E-02  2.32184443E-01  4.67941348E-01
  3.62311985E-01 -1.19332420E-01 -1.60854152E-01  1.14345644E+00  6.89990666E-02
  3.16423961E-01  7.44308291E-01  1.00000000E+00  1.00000000E+00  1.00000000E+00
  1.83473713E-03  1.40373228E-02  6.88426223E-02  2.32184443E-01  4.67941348E-01
  3.62311985E-01 -1.19332420E-01 -1.60854152E-01  1.14345644E+00  6.89990666E-02
  3.16423961E-01  7.44308291E-01  1.00000000E+00  1.00000000E+00  1.00000000E+00
  3.34946043E-02  2.34726953E-01  8.13757326E-01  1.00000000E+00  3.34946043E-02
  2.34726953E-01  8.13757326E-01  1.00000000E+00  3.34946043E-02  2.34726953E-01
  8.13757326E-01  1.00000000E+00  1.83473713E-03  1.40373228E-02  6.88426223E-02
  2.32184443E-01  4.67941348E-01  3.62311985E-01 -1.19332420E-01 -1.60854152E-01
  1.14345644E+00  6.89990666E-02  3.16423961E-01  7.44308291E-01  1.00000000E+00
  1.00000000E+00  1.00000000E+00  1.83473713E-03  1.40373228E-02  6.88426223E-02
  2.32184443E-01  4.67941348E-01  3.62311985E-01 -1.19332420E-01 -1.60854152E-01
  1.14345644E+00  6.89990666E-02  3.16423961E-01  7.44308291E-01  1.00000000E+00
  1.00000000E+00  1.00000000E+00  3.34946043E-02  2.34726953E-01  8.13757326E-01
  1.00000000E+00  3.34946043E-02  2.34726953E-01  8.13757326E-01  1.00000000E+00
  3.34946043E-02  2.34726953E-01  8.13757326E-01  1.00000000E+00
Coordinates of each shell                  R   N=         108
 -9.27063921E-02 -5.07413536E-01  1.68901988E+00 -9.27063921E-02 -5.07413536E-01
  1.68901988E+00 -9.27063921E-02 -5.07413536E-01  1.68901988E+00 -9.27063921E-02
 -5.07413536E-01  1.68901988E+00 -9.27063921E-02 -5.07413536E-01  1.68901988E+00
 -9.27063921E-02 -5.07413536E-01  1.68901988E+00  2.66285730E-01 -2.93941065E+00
  9.50891723E-01  2.66285730E-01 -2.93941065E+00  9.50891723E-01  2.66285730E-01
 -2.93941065E+00  9.50891723E-01  2.66285730E-01 -2.93941065E+00  9.50891723E-01
  2.66285730E-01 -2.93941065E+00  9.50891723E-01  2.66285730E-01 -2.93941065E+00
  9.50891723E-01  6.55038960E-01 -3.46207736E+00 -1.01091997E+00  6.55038960E-01
 -3.46207736E+00 -1.01091997E+00  2.04506842E-01 -4.49634816E+00  2.30435738E+00
  2.04506842E-01 -4.49634816E+00  2.30435738E+00 -4.42483265E-01 -1.29498490E-01
  3.69618423E+00 -4.42483265E-01 -1.29498490E-01  3.69618423E+00 -9.27063921E-02
  1.76349338E+00 -2.54887263E+00 -9.27063921E-02  1.76349338E+00 -2.54887263E+00
 -9.27063921E-02  1.76349338E+00 -2.54887263E+00 -9.27063921E-02  1.76349338E+00
 -2.54887263E+00 -9.27063921E-02  1.76349338E+00 -2.54887263E+00 -9.27063921E-02
  1.76349338E+00 -2.54887263E+00 -9.27063921E-02  1.76349338E+00  1.79017346E-02
 -9.27063921E-02  1.76349338E+00  1.79017346E-02 -9.27063921E-02  1.76349338E+00
  1.79017346E-02 -9.27063921E-02  1.76349338E+00  1.79017346E-02 -9.27063921E-02
  1.76349338E+00  1.79017346E-02 -9.27063921E-02  1.76349338E+00  1.79017346E-02
 -6.78626730E-02  3.58685926E+00  1.00207331E+00 -6.78626730E-02  3.58685926E+00
  1.00207331E+00 -1.47379249E-01  2.29383272E-02 -3.66264592E+00 -1.47379249E-01
  2.29383272E-02 -3.66264592E+00 -6.09220491E-02  3.52364454E+00 -3.62618726E+00
 -6.09220491E-02  3.52364454E+00 -3.62618726E+00
Virial Ratio                               R      2.000000000000000E+00
Total Energy                               R      0.000000000000000E+00
Num ILSW                                   I              1
ILSW                                       I   N=         1
           1
Alpha Orbital Energies                     R   N=          72
 -1.02066671E+01 -1.01979048E+01 -7.40098369E-01 -5.52342554E-01 -4.40633879E-01
 -3.93009113E-01 -2.63832913E-01 -1.02229004E+01 -1.01963568E+01 -7.56183834E-01
 -5.72248131E-01 -4.56548870E-01 -4.06366206E-01 -2.72977250E-01 -2.66364773E-01
  5.94269662E-01  6.36027208E-01  6.41734911E-01  6.70458798E-01  8.32784769E-01
  8.66169341E-01  9.26039249E-01  9.64049212E-01  1.10616451E+00  1.45823102E+00
  1.56720573E+00  1.80064607E+00  1.84451802E+00  1.91841085E+00  2.07605213E+00
  2.21559854E+00  2.36498165E+00  2.58239235E+00  2.69244132E+00  4.04710592E+00
  4.21962858E+00 -9.26541948E-02  2.01419454E-02  1.23784729E-01  1.45564522E-01
  2.13430821E-01  3.36147584E-01  5.00399602E-01  5.48455470E-01  5.28805471E-03
  1.15578027E-01  1.40520374E-01  2.04928502E-01  3.18361556E-01  4.88684458E-01
  5.44044896E-01  5.58572359E-01  6.03605388E-01  6.27917531E-01  6.59459213E-01
  8.24202124E-01  8.50933779E-01  9.21007383E-01  9.43853724E-01  1.09400671E+00
  1.44429929E+00  1.54340585E+00  1.73843617E+00  1.81357128E+00  1.90702960E+00
  2.05092076E+00  2.20004291E+00  2.34807419E+00  2.55612960E+00  2.66883190E+00
  4.02065289E+00  4.20716987E+00
Beta Orbital Energies                      R   N=          72
 -1.02229001E+01 -1.01963566E+01 -7.56183839E-01 -5.72248180E-01 -4.56549501E-01
 -4.06366303E-01 -2.72977340E-01 -2.66363973E-01 -1.02066674E+01 -1.01979051E+01
 -7.40098383E-01 -5.52342605E-01 -4.40633098E-01 -3.93008980E-01 -2.63832807E-01
  5.58573055E-01  6.03603412E-01  6.27917746E-01  6.59460082E-01  8.24204232E-01
  8.50934646E-01  9.21007609E-01  9.43855063E-01  1.09400604E+00  1.44429969E+00
  1.54340558E+00  1.73843682E+00  1.81357184E+00  1.90703040E+00  2.05091998E+00
  2.20004076E+00  2.34807553E+00  2.55613439E+00  2.66883264E+00  4.02065358E+00
  4.20716951E+00  5.28840622E-03  1.15578969E-01  1.40520157E-01  2.04927850E-01
  3.18362439E-01  4.88684234E-01  5.44044758E-01 -9.26548772E-02  2.01416830E-02
  1.23783862E-01  1.45564550E-01  2.13431539E-01  3.36146872E-01  5.00399613E-01
  5.48455639E-01  5.94270511E-01  6.36027092E-01  6.41735298E-01  6.70458183E-01
  8.32783062E-01  8.66168172E-01  9.26038954E-01  9.64047917E-01  1.10616527E+00
  1.45823091E+00  1.56720585E+00  1.80064517E+00  1.84451725E+00  1.91840965E+00
  2.07605292E+00  2.21560147E+00  2.36498054E+00  2.58238689E+00  2.69244120E+00
  4.04710523E+00  4.21962907E+00
Alpha MO coefficients                      R   N=        5184
  9.92196072E-01  4.67843025E-02 -3.75279659E-05 -6.91753517E-04  6.62875764E-04
 -1.17949296E-02  7.55105105E-06  2.17564987E-03 -1.43115063E-03 -8.98795521E-03
 -8.92544048E-03 -8.95066391E-03 -1.07268509E-04 -6.63535704E-05  5.97642403E-04
  4.06597470E-02  1.46783195E-03  7.87565910E-05 -4.68675169E-04 -1.94576473E-04
  4.20943532E-03 -4.40244424E-04  1.67766302E-03  1.68885436E-03 -5.61813313E-04
 -7.86506722E-04 -5.37202126E-04  2.63541967E-05 -3.78777959E-06  3.65002083E-08
 -4.19412987E-05  6.78258070E-04 -1.92249602E-04 -3.02454240E-04 -3.29238222E-04
  2.79315849E-03  0.00000000E+00  0.00000000E+00  0.00000000E+00  0.00000000E+00
  0.00000000E+00  0.00000000E+00  0.00000000E+00  0.00000000E+00  0.00000000E+00
  0.00000000E+00  0.00000000E+00  0.00000000E+00  0.00000000E+00  0.00000000E+00
  0.00000000E+00  0.00000000E+00  0.00000000E+00  0.00000000E+00  0.00000000E+00
  0.00000000E+00  0.00000000E+00  0.00000000E+00  0.00000000E+00  0.00000000E+00
  0.00000000E+00  0.00000000E+00  0.00000000E+00  0.00000000E+00  0.00000000E+00
  0.00000000E+00  0.00000000E+00  0.00000000E+00  0.00000000E+00  0.00000000E+00
  0.00000000E+00  0.00000000E+00 -4.11143929E-02 -2.40950000E-03 -5.31952448E-05
  4.20651104E-04  7.53512198E-05  4.77676576E-03  2.56306157E-04 -1.87577397E-03
 -4.15808155E-04  2.36025191E-04  3.43816770E-05  1.74170636E-04  2.99439859E-05
  1.74227086E-05 -4.80025664E-05  9.91882750E-01  4.91570106E-02  6.79766507E-07
 -3.59790461E-05  3.25416491E-05 -1.29520305E-02  1.31835761E-04 -8.25661088E-04
 -4.05423243E-04 -9.68007422E-03 -9.27775288E-03 -9.44966710E-03 -6.18385870E-05
 -5.58124110E-05  8.56998577E-05 -3.44243285E-04  2.11502866E-03 -3.24375737E-04
  2.24119794E-03 -7.96123887E-05 -1.26379662E-04  0.00000000E+00  0.00000000E+00
  0.00000000E+00  0.00000000E+00  0.00000000E+00  0.00000000E+00  0.00000000E+00
  0.00000000E+00  0.00000000E+00  0.00000000E+00  0.00000000E+00  0.00000000E+00
  0.00000000E+00  0.00000000E+00  0.00000000E+00  0.00000000E+00  0.00000000E+00
  0.00000000E+00  0.00000000E+00  0.00000000E+00  0.00000000E+00  0.00000000E+00
  0.00000000E+00  0.00000000E+00  0.00000000E+00  0.00000000E+00  0.00000000E+00
  0.00000000E+00  0.00000000E+00  0.00000000E+00  0.00000000E+00  0.00000000E+00
  0.00000000E+00  0.00000000E+00  0.00000000E+00  0.00000000E+00 -1.37814664E-01
  2.68804722E-01  1.38365391E-02 -1.41871212E-01  2.50608541E-03  1.92934336E-01
 -6.83278404E-04 -1.60518433E-02  1.44812231E-02 -1.24825957E-02  4.01017781E-03
 -3.77836272E-03 -3.85014409E-03 -2.78391450E-03  1.15252647E-02 -1.76229314E-01
  3.43646959E-01 -1.26110638E-02  7.70539690E-02  3.46187489E-02  2.80785001E-01
 -3.97307936E-04  4.27997440E-03  1.30351906E-03 -1.63138315E-02  5.65207344E-03
  1.30159511E-03 -2.88409546E-03 -3.69828178E-03  1.60854253E-03  9.50165994E-02
  1.97482107E-02  1.02609799E-01  2.46507259E-02  8.08964132E-02  1.65568050E-02
  0.00000000E+00  0.00000000E+00  0.00000000E+00  0.00000000E+00  0.00000000E+00
  0.00000000E+00  0.00000000E+00  0.00000000E+00  0.00000000E+00  0.00000000E+00
  0.00000000E+00  0.00000000E+00  0.00000000E+00  0.00000000E+00  0.00000000E+00
  0.00000000E+00  0.00000000E+00  0.00000000E+00  0.00000000E+00  0.00000000E+00
  0.00000000E+00  0.00000000E+00  0.00000000E+00  0.00000000E+00  0.00000000E+00
  0.00000000E+00  0.00000000E+00  0.00000000E+00  0.00000000E+00  0.00000000E+00
  0.00000000E+00  0.00000000E+00  0.00000000E+00  0.00000000E+00  0.00000000E+00
  0.00000000E+00 -1.33282973E-01  2.68905828E-01 -2.78316619E-02  2.50824787E-02
  1.60103282E-01  2.53540514E-01 -1.05786562E-02  1.79317934E-02  5.56964212E-02
 -9.88360111E-03 -1.61441892E-02  1.10441686E-02 -4.41801026E-04 -4.49568361E-03
  6.86814245E-03  9.67759378E-02 -1.97295759E-01 -4.04939200E-02  2.08188525E-01
  1.16668113E-01 -2.08018422E-01 -1.36240493E-02  7.88890555E-02  3.37690839E-02
  7.88316156E-03  7.17293964E-03 -1.14484628E-02 -1.32942939E-03  2.92813373E-03
  9.61905941E-03 -1.65555867E-01 -8.61016976E-02 -1.22956222E-01 -5.66450865E-02
  1.98875265E-01  1.06600999E-01  0.00000000E+00  0.00000000E+00  0.00000000E+00
  0.00000000E+00  0.00000000E+00  0.00000000E+00  0.00000000E+00  0.00000000E+00
  0.00000000E+00  0.00000000E+00  0.00000000E+00  0.00000000E+00  0.00000000E+00
  0.00000000E+00  0.00000000E+00  0.00000000E+00  0.00000000E+00  0.00000000E+00
  0.00000000E+00  0.00000000E+00  0.00000000E+00  0.00000000E+00  0.00000000E+00
  0.00000000E+00  0.00000000E+00  0.00000000E+00  0.00000000E+00  0.00000000E+00
  0.00000000E+00  0.00000000E+00  0.00000000E+00  0.00000000E+00  0.00000000E+00
  0.00000000E+00  0.00000000E+00  0.00000000E+00 -3.23435877E-02  6.77923264E-02
  4.89661517E-02 -1.28614503E-01 -2.28546784E-01  4.81093733E-02  1.12200784E-02
 -1.52905419E-02 -6.10443136E-02 -4.58383385E-04  2.43307127E-03 -1.25438678E-02
 -2.25911557E-03  9.98403934E-04  1.18186394E-02 -1.60524614E-03  2.46028246E-03
  1.04459913E-02  3.33420376E-01 -2.65596850E-01  1.64271573E-02  5.47477139E-03
  1.34024109E-01 -1.14676274E-01  4.94708310E-04 -2.94198236E-03 -5.50223084E-03
 -2.00608248E-03 -5.64778684E-04  1.47842582E-02  9.60803510E-02  6.61673916E-02
 -2.50435512E-01 -1.91203051E-01 -1.18764576E-01 -1.12239652E-01  0.00000000E+00
  0.00000000E+00  0.00000000E+00  0.00000000E+00  0.00000000E+00  0.00000000E+00
  0.00000000E+00  0.00000000E+00  0.00000000E+00  0.00000000E+00  0.00000000E+00
  0.00000000E+00  0.00000000E+00  0.00000000E+00  0.00000000E+00  0.00000000E+00
  0.00000000E+00  0.00000000E+00  0.00000000E+00  0.00000000E+00  0.00000000E+00
  0.00000000E+00  0.00000000E+00  0.00000000E+00  0.00000000E+00  0.00000000E+00
  0.00000000E+00  0.00000000E+00  0.00000000E+00  0.00000000E+00  0.00000000E+00
  0.00000000E+00  0.00000000E+00  0.00000000E+00  0.00000000E+00  0.00000000E+00
  1.21677172E-02 -1.89518867E-02  5.60412540E-02 -2.66337336E-01 -1.99154083E-01
 -6.76678070E-02  1.62576368E-02 -8.26660192E-02 -5.59693493E-02 -2.20805454E-04
  2.14963847E-02 -2.55590739E-02 -6.85690519E-04  5.70262319E-03 -9.82297173E-03
 -2.10778136E-02  4.67694004E-02 -7.75760559E-02  1.89806273E-01  3.42198742E-01
  5.38900355E-02 -3.20504683E-02  7.58894385E-02  1.41662803E-01 -1.76320953E-03
  9.35706830E-03 -1.94390228E-02  9.24198464E-04  4.98507991E-03 -1.29200898E-02
 -2.33810265E-01 -2.07451997E-01  7.87364567E-02  6.38450109E-02 -1.94555979E-01
 -1.88399078E-01  0.00000000E+00  0.00000000E+00  0.00000000E+00  0.00000000E+00
  0.00000000E+00  0.00000000E+00  0.00000000E+00  0.00000000E+00  0.00000000E+00
  0.00000000E+00  0.00000000E+00  0.00000000E+00  0.00000000E+00  0.00000000E+00
  0.00000000E+00  0.00000000E+00  0.00000000E+00  0.00000000E+00  0.00000000E+00
  0.00000000E+00  0.00000000E+00  0.00000000E+00  0.00000000E+00  0.00000000E+00
  0.00000000E+00  0.00000000E+00  0.00000000E+00  0.00000000E+00  0.00000000E+00
  0.00000000E+00  0.00000000E+00  0.00000000E+00  0.00000000E+00  0.00000000E+00
  0.00000000E+00  0.00000000E+00  5.50111034E-04 -8.78121773E-04  3.61395095E-01
  3.20353610E-02  5.78674323E-02 -3.24046073E-03  2.37504662E-01  2.15788529E-02
  3.81204860E-02  3.25637520E-03 -3.82913837E-03  7.28247203E-04 -2.37322562E-02
  3.34249741E-03 -3.73498784E-03  2.38534771E-04 -4.48247522E-04  4.27247768E-01
  4.47511230E-02  7.23184352E-02 -1.08811340E-03  3.22430848E-01  3.32789994E-02
  5.45331103E-02 -3.60052125E-03  2.23603011E-03  1.35904899E-03  1.30420870E-02
  4.69526429E-03  2.63504361E-03 -3.20278237E-04 -6.94676553E-04  2.40898629E-04
 -1.12025700E-04 -3.61873219E-04 -5.25717872E-04  0.00000000E+00  0.00000000E+00
  0.00000000E+00  0.00000000E+00  0.00000000E+00  0.00000000E+00  0.00000000E+00
  0.00000000E+00  0.00000000E+00  0.00000000E+00  0.00000000E+00  0.00000000E+00
  0.00000000E+00  0.00000000E+00  0.00000000E+00  0.00000000E+00  0.00000000E+00
  0.00000000E+00  0.00000000E+00  0.00000000E+00  0.00000000E+00  0.00000000E+00
  0.00000000E+00  0.00000000E+00  0.00000000E+00  0.00000000E+00  0.00000000E+00
  0.00000000E+00  0.00000000E+00  0.00000000E+00  0.00000000E+00  0.00000000E+00
  0.00000000E+00  0.00000000E+00  0.00000000E+00  0.00000000E+00  0.00000000E+00
  0.00000000E+00  0.00000000E+00  0.00000000E+00  0.00000000E+00  0.00000000E+00
  0.00000000E+00  0.00000000E+00  0.00000000E+00  0.00000000E+00  0.00000000E+00
  0.00000000E+00  0.00000000E+00  0.00000000E+00  0.00000000E+00  0.00000000E+00
  0.00000000E+00  0.00000000E+00  0.00000000E+00  0.00000000E+00  0.00000000E+00
  0.00000000E+00  0.00000000E+00  0.00000000E+00  0.00000000E+00  0.00000000E+00
  0.00000000E+00  0.00000000E+00  0.00000000E+00  0.00000000E+00  0.00000000E+00
  0.00000000E+00  0.00000000E+00  0.00000000E+00  0.00000000E+00  0.00000000E+00
  1.36775228E-02  1.58216948E-04 -1.81647270E-06 -5.65277848E-05 -3.81156159E-04
  4.55290964E-03  1.76026186E-05  8.49724561E-04  2.19728215E-03 -2.94708273E-04
 -3.24651068E-04 -3.90082567E-04 -9.13000853E-07 -3.24018158E-07  1.62762199E-05
  9.92480620E-01  4.96975738E-02  8.85909911E-07  2.41248307E-04 -7.78512328E-05
 -1.17418021E-02 -2.31868393E-05 -1.64186312E-03  1.72202609E-03 -1.01343272E-02
 -9.75211769E-03 -9.71987471E-03  1.01808832E-05 -3.74873258E-06 -1.22582572E-04
 -2.33771470E-04  2.55826536E-03 -4.30749994E-05  5.04842327E-04 -1.70858635E-04
 -2.31993353E-04  0.00000000E+00  0.00000000E+00  0.00000000E+00  0.00000000E+00
  0.00000000E+00  0.00000000E+00  0.00000000E+00  0.00000000E+00  0.00000000E+00
  0.00000000E+00  0.00000000E+00  0.00000000E+00  0.00000000E+00  0.00000000E+00
  0.00000000E+00  0.00000000E+00  0.00000000E+00  0.00000000E+00  0.00000000E+00
  0.00000000E+00  0.00000000E+00  0.00000000E+00  0.00000000E+00  0.00000000E+00
  0.00000000E+00  0.00000000E+00  0.00000000E+00  0.00000000E+00  0.00000000E+00
  0.00000000E+00  0.00000000E+00  0.00000000E+00  0.00000000E+00  0.00000000E+00
  0.00000000E+00  0.00000000E+00  9.92686344E-01  4.87444199E-02 -1.78222277E-06
  2.68502703E-05 -5.69877980E-06 -1.27885765E-02  1.27827290E-05 -1.09545260E-04
 -8.31185139E-04 -9.69173502E-03 -9.30260678E-03 -9.02175536E-03  1.08061331E-05
  3.38899786E-06  7.16274583E-06 -1.41156323E-02 -1.18937527E-03 -4.16320656E-07
  5.17974964E-06  4.29525147E-04  4.40570232E-03 -2.25145637E-06  9.43798220E-05
 -1.85782032E-03  1.79055185E-05 -6.22486290E-05 -2.24837739E-04 -2.50753164E-06
  1.72180326E-06  1.09541366E-05 -8.31723248E-05 -5.60130296E-05 -3.58301126E-04
  2.14017232E-03 -3.33177489E-04  2.23391104E-03  0.00000000E+00  0.00000000E+00
  0.00000000E+00  0.00000000E+00  0.00000000E+00  0.00000000E+00  0.00000000E+00
  0.00000000E+00  0.00000000E+00  0.00000000E+00  0.00000000E+00  0.00000000E+00
  0.00000000E+00  0.00000000E+00  0.00000000E+00  0.00000000E+00  0.00000000E+00
  0.00000000E+00  0.00000000E+00  0.00000000E+00  0.00000000E+00  0.00000000E+00
  0.00000000E+00  0.00000000E+00  0.00000000E+00  0.00000000E+00  0.00000000E+00
  0.00000000E+00  0.00000000E+00  0.00000000E+00  0.00000000E+00  0.00000000E+00
  0.00000000E+00  0.00000000E+00  0.00000000E+00  0.00000000E+00 -1.63283429E-01
  3.18458456E-01 -2.39639951E-04  1.00927871E-02  9.80137599E-02  2.32579863E-01
 -1.12486543E-05  7.19046506E-03  2.40920714E-04 -1.85235349E-02  7.78556234E-04
  8.78796648E-03  5.36251590E-04  1.18946256E-04  1.20066857E-03 -1.55619675E-01
  3.13091345E-01  2.99922036E-04  3.34065179E-02 -1.19333808E-01  2.41727807E-01
  8.15082535E-05  1.02606362E-02 -1.39944727E-02 -1.70897179E-02 -1.16152837E-03
  5.92632610E-03  3.42141578E-04 -3.92481791E-05  6.70749884E-05  9.33503671E-02
  2.05668830E-02  8.54175540E-02  2.03928463E-02  9.37802702E-02  1.92040658E-02
  0.00000000E+00  0.00000000E+00  0.00000000E+00  0.00000000E+00  0.00000000E+00
  0.00000000E+00  0.00000000E+00  0.00000000E+00  0.00000000E+00  0.00000000E+00
  0.00000000E+00  0.00000000E+00  0.00000000E+00  0.00000000E+00  0.00000000E+00
  0.00000000E+00  0.00000000E+00  0.00000000E+00  0.00000000E+00  0.00000000E+00
  0.00000000E+00  0.00000000E+00  0.00000000E+00  0.00000000E+00  0.00000000E+00
  0.00000000E+00  0.00000000E+00  0.00000000E+00  0.00000000E+00  0.00000000E+00
  0.00000000E+00  0.00000000E+00  0.00000000E+00  0.00000000E+00  0.00000000E+00
  0.00000000E+00  1.14144639E-01 -2.30562496E-01  1.69416577E-03  2.96582131E-02
  2.08623771E-01 -2.35040106E-01  6.95012218E-04  1.30473314E-02  7.26685984E-02
  1.16118100E-02 -1.52996647E-02  8.36992204E-03 -7.76476765E-04 -1.49063670E-04
  1.76818369E-03 -1.28899671E-01  2.69209313E-01  1.49770661E-03  1.04120722E-01
  1.20202601E-01  2.65945252E-01  2.76002904E-04  2.61366928E-02  4.39834672E-02
 -1.22110698E-02  1.02212994E-02 -1.13587759E-02  4.25902937E-04 -2.40556049E-05
  5.02749964E-03  1.86694818E-01  9.49213682E-02 -1.63955321E-01 -7.61145318E-02
 -1.45703980E-01 -7.26156187E-02  0.00000000E+00  0.00000000E+00  0.00000000E+00
  0.00000000E+00  0.00000000E+00  0.00000000E+00  0.00000000E+00  0.00000000E+00
  0.00000000E+00  0.00000000E+00  0.00000000E+00  0.00000000E+00  0.00000000E+00
  0.00000000E+00  0.00000000E+00  0.00000000E+00  0.00000000E+00  0.00000000E+00
  0.00000000E+00  0.00000000E+00  0.00000000E+00  0.00000000E+00  0.00000000E+00
  0.00000000E+00  0.00000000E+00  0.00000000E+00  0.00000000E+00  0.00000000E+00
  0.00000000E+00  0.00000000E+00  0.00000000E+00  0.00000000E+00  0.00000000E+00
  0.00000000E+00  0.00000000E+00  0.00000000E+00  6.92760852E-04 -1.62509177E-03
  7.26431042E-03  3.44839502E-01 -2.00973942E-01 -1.56695122E-02  2.63445775E-03
  1.27634648E-01 -7.48674247E-02 -3.80662829E-04  1.10431690E-02 -3.87465574E-03
  8.06894188E-05 -2.52256054E-04 -1.13706302E-02  3.45546374E-02 -7.93405919E-02
  4.53478979E-03  2.50299134E-01  1.55448164E-01 -7.04125748E-02  1.85145120E-03
  9.41294245E-02  1.95071551E-02  1.25445897E-03  1.23296077E-02 -1.78474383E-03
  1.36181943E-04 -1.13038729E-04 -3.13213501E-03  1.36403437E-01  1.14745448E-01
 -1.03752812E-01 -7.53600366E-02  2.44902385E-01  1.89166725E-01  0.00000000E+00
  0.00000000E+00  0.00000000E+00  0.00000000E+00  0.00000000E+00  0.00000000E+00
  0.00000000E+00  0.00000000E+00  0.00000000E+00  0.00000000E+00  0.00000000E+00
  0.00000000E+00  0.00000000E+00  0.00000000E+00  0.00000000E+00  0.00000000E+00
  0.00000000E+00  0.00000000E+00  0.00000000E+00  0.00000000E+00  0.00000000E+00
  0.00000000E+00  0.00000000E+00  0.00000000E+00  0.00000000E+00  0.00000000E+00
  0.00000000E+00  0.00000000E+00  0.00000000E+00  0.00000000E+00  0.00000000E+00
  0.00000000E+00  0.00000000E+00  0.00000000E+00  0.00000000E+00  0.00000000E+00
  1.87298243E-02 -4.12277369E-02 -8.30125955E-03 -2.49832815E-01 -3.17458367E-01
 -3.63846326E-02 -3.27425120E-03 -9.40628440E-02 -1.19722281E-01  1.32989479E-03
  1.31950133E-02 -2.36977986E-03  4.95871477E-04  3.77747336E-04  1.55052418E-02
 -1.24049848E-02  2.27966391E-02 -1.55488767E-03  5.12443546E-02  3.66032751E-01
  8.33441660E-02 -1.15166163E-03 -2.32631815E-03  1.24032902E-01 -8.12146720E-04
  1.38546108E-02 -9.21429491E-03  2.48213272E-04  3.64360009E-04  1.66943310E-02
  1.72371573E-01  1.59342811E-01  2.32772271E-01  2.03212615E-01 -5.24165650E-02
 -4.23396494E-02  0.00000000E+00  0.00000000E+00  0.00000000E+00  0.00000000E+00
  0.00000000E+00  0.00000000E+00  0.00000000E+00  0.00000000E+00  0.00000000E+00
  0.00000000E+00  0.00000000E+00  0.00000000E+00  0.00000000E+00  0.00000000E+00
  0.00000000E+00  0.00000000E+00  0.00000000E+00  0.00000000E+00  0.00000000E+00
  0.00000000E+00  0.00000000E+00  0.00000000E+00  0.00000000E+00  0.00000000E+00
  0.00000000E+00  0.00000000E+00  0.00000000E+00  0.00000000E+00  0.00000000E+00
  0.00000000E+00  0.00000000E+00  0.00000000E+00  0.00000000E+00  0.00000000E+00
  0.00000000E+00  0.00000000E+00  8.30637726E-04 -2.17171892E-03  3.78823074E-01
 -3.14284118E-03 -8.46695395E-03  6.26091633E-04  2.70461414E-01 -4.36216529E-03
 -2.81100713E-03  2.48830233E-05  1.36467588E-04  1.53563590E-04  8.62605903E-04
  1.63653889E-02 -1.70313016E-03 -3.86280664E-03  7.93079514E-03  4.34185255E-01
 -3.08789017E-02  1.57373815E-02  1.89672912E-02  2.91896524E-01 -2.00765129E-02
  1.16857674E-02 -8.03232818E-05 -4.69223375E-04 -5.52677053E-04  1.99402586E-03
 -1.60465638E-02 -1.91190445E-04 -6.59837993E-03 -7.78316559E-03 -4.63731838E-03
 -5.06725030E-03  7.09731001E-03  9.67805740E-03  0.00000000E+00  0.00000000E+00
  0.00000000E+00  0.00000000E+00  0.00000000E+00  0.00000000E+00  0.00000000E+00
  0.00000000E+00  0.00000000E+00  0.00000000E+00  0.00000000E+00  0.00000000E+00
  0.00000000E+00  0.00000000E+00  0.00000000E+00  0.00000000E+00  0.00000000E+00
  0.00000000E+00  0.00000000E+00  0.00000000E+00  0.00000000E+00  0.00000000E+00
  0.00000000E+00  0.00000000E+00  0.00000000E+00  0.00000000E+00  0.00000000E+00
  0.00000000E+00  0.00000000E+00  0.00000000E+00  0.00000000E+00  0.00000000E+00
  0.00000000E+00  0.00000000E+00  0.00000000E+00  0.00000000E+00 -2.26910554E-02
  5.64549812E-02  1.61684035E-02 -1.32422279E-01  1.12748422E-01  1.15526472E-02
  1.27902797E-02 -4.76938707E-02  2.14117117E-02 -1.24398408E-03 -2.08240409E-03
 -3.12039179E-03  1.52098048E-04  1.47732878E-03  2.97684213E-02  7.25888675E-02
 -1.51266096E-01  3.13893382E-02  4.61047382E-01 -2.57717688E-01 -3.49431913E-01
  2.13923814E-02  2.99649692E-01 -2.09732460E-01  9.65123066E-04  9.61658601E-03
  1.05754850E-02  1.55590175E-04 -5.39833304E-04  1.26650103E-02  1.43049960E-01
  1.74902401E-01  1.08146747E-01  1.28961705E-01 -1.52642452E-01 -2.06877917E-01
 -4.33379128E-02 -1.29099051E-01  6.15414736E-02  1.88810749E-01 -4.69281659E-01
  4.92094370E-01 -9.27969170E-02 -8.98490574E-02  6.29090314E-01  3.94421404E-02
 -3.70739050E-03 -9.08235571E-02  1.21885655E-02  2.85584029E-02 -4.15999932E-02
  3.64787542E-03 -1.90740638E-01  6.41493878E-02  2.53959954E-04 -4.06231270E-01
  2.15688822E-01 -1.21692554E-01 -2.38791239E-01  8.84411055E-01  7.75655048E-03
 -4.95118641E-02  1.16503148E-02 -5.20451518E-03 -9.32604556E-03  7.38827768E-02
  3.06212126E-01  1.69413931E-01 -4.01946474E-01 -2.21408876E-01 -5.35729254E-01
 -8.70231493E-02  0.00000000E+00  0.00000000E+00  0.00000000E+00  0.00000000E+00
  0.00000000E+00  0.00000000E+00  0.00000000E+00  0.00000000E+00  0.00000000E+00
  0.00000000E+00  0.00000000E+00  0.00000000E+00  0.00000000E+00  0.00000000E+00
  0.00000000E+00  0.00000000E+00  0.00000000E+00  0.00000000E+00  0.00000000E+00
  0.00000000E+00  0.00000000E+00  0.00000000E+00  0.00000000E+00  0.00000000E+00
  0.00000000E+00  0.00000000E+00  0.00000000E+00  0.00000000E+00  0.00000000E+00
  0.00000000E+00  0.00000000E+00  0.00000000E+00  0.00000000E+00  0.00000000E+00
  0.00000000E+00  0.00000000E+00  1.48503454E-04 -1.69501994E-02 -8.42583819E-01
 -8.90613552E-02 -1.22404782E-01  2.38980088E-02  1.17927764E+00  1.20632812E-01
  1.77786161E-01  2.22168299E-03 -1.75864490E-03 -4.55743046E-03 -3.74493970E-03
 -5.78995469E-03 -2.75401308E-03 -6.94100370E-04 -1.40862835E-02  6.76159707E-01
  6.82264704E-02  1.08416644E-01  2.13009539E-02 -1.03214810E+00 -1.13665649E-01
 -1.63725385E-01  6.05614751E-03 -6.34934907E-03 -3.24066442E-03 -2.02062433E-02