 Entering Gaussian System, Link 0=g16
 Initial command:
 /home/kangmg/compchem/gaussian/g16/l1.exe "/home/kangmg/compchem/gaussian/scratch/Gau-32556.inp" -scrdir="/home/kangmg/compchem/gaussian/scratch/"
 Entering Link 1 = /home/kangmg/compchem/gaussian/g16/l1.exe PID=     32558.
  
 Copyright (c) 1988,1990,1992,1993,1995,1998,2003,2009,2016,
            Gaussian, Inc.  All Rights Reserved.
  
 This is part of the Gaussian(R) 16 program.  It is based on
 the Gaussian(R) 09 system (copyright 2009, Gaussian, Inc.),
 the Gaussian(R) 03 system (copyright 2003, Gaussian, Inc.),
 the Gaussian(R) 98 system (copyright 1998, Gaussian, Inc.),
 the Gaussian(R) 94 system (copyright 1995, Gaussian, Inc.),
 the Gaussian 92(TM) system (copyright 1992, Gaussian, Inc.),
 the Gaussian 90(TM) system (copyright 1990, Gaussian, Inc.),
 the Gaussian 88(TM) system (copyright 1988, Gaussian, Inc.),
 the Gaussian 86(TM) system (copyright 1986, Carnegie Mellon
 University), and the Gaussian 82(TM) system (copyright 1983,
 Carnegie Mellon University). Gaussian is a federally registered
 trademark of Gaussian, Inc.
  
 This software contains proprietary and confidential information,
 including trade secrets, belonging to Gaussian, Inc.
  
 This software is provided under written license and may be
 used, copied, transmitted, or stored only in accord with that
 written license.
  
 The following legend is applicable only to US Government
 contracts under FAR:
  
                    RESTRICTED RIGHTS LEGEND
  
 Use, reproduction and disclosure by the US Government is
 subject to restrictions as set forth in subparagraphs (a)
 and (c) of the Commercial Computer Software - Restricted
 Rights clause in FAR 52.227-19.
  
 Gaussian, Inc.
 340 Quinnipiac St., Bldg. 40, Wallingford CT 06492
  
  
 ---------------------------------------------------------------
 Warning -- This program may not be used in any manner that
 competes with the business of Gaussian, Inc. or will provide
 assistance to any competitor of Gaussian, Inc.  The licensee
 of this program is prohibited from giving any competitor of
 Gaussian, Inc. access to this program.  By using this program,
 the user acknowledges that Gaussian, Inc. is engaged in the
 business of creating and licensing software in the field of
 computational chemistry and represents and warrants to the
 licensee that it is not a competitor of Gaussian, Inc. and that
 it will not use this program in any manner prohibited above.
 ---------------------------------------------------------------
  

 Cite this work as:
 Gaussian 16, Revision A.03,
 M. J. Frisch, G. W. Trucks, H. B. Schlegel, G. E. Scuseria, 
 M. A. Robb, J. R. Cheeseman, G. Scalmani, V. Barone, 
 G. A. Petersson, H. Nakatsuji, X. Li, M. Caricato, A. V. Marenich, 
 J. Bloino, B. G. Janesko, R. Gomperts, B. Mennucci, H. P. Hratchian, 
 J. V. Ortiz, A. F. Izmaylov, J. L. Sonnenberg, D. Williams-Young, 
 F. Ding, F. Lipparini, F. Egidi, J. Goings, B. Peng, A. Petrone, 
 T. Henderson, D. Ranasinghe, V. G. Zakrzewski, J. Gao, N. Rega, 
 G. Zheng, W. Liang, M. Hada, M. Ehara, K. Toyota, R. Fukuda, 
 J. Hasegawa, M. Ishida, T. Nakajima, Y. Honda, O. Kitao, H. Nakai, 
 T. Vreven, K. Throssell, J. A. Montgomery, Jr., J. E. Peralta, 
 F. Ogliaro, M. J. Bearpark, J. J. Heyd, E. N. Brothers, K. N. Kudin, 
 V. N. Staroverov, T. A. Keith, R. Kobayashi, J. Normand, 
 K. Raghavachari, A. P. Rendell, J. C. Burant, S. S. Iyengar, 
 J. Tomasi, M. Cossi, J. M. Millam, M. Klene, C. Adamo, R. Cammi, 
 J. W. Ochterski, R. L. Martin, K. Morokuma, O. Farkas, 
 J. B. Foresman, and D. J. Fox, Gaussian, Inc., Wallingford CT, 2016.
 
 ******************************************
 Gaussian 16:  ES64L-G16RevA.03 25-Dec-2016
                 8-Jan-2024 
 ******************************************
 %oldchk=2_promol.chk
 Copying data from "2_promol.chk" to current chk file "/home/kangmg/compchem/gaussian/scratch/Gau-32558.chk"
 IOpt=  2 FromEx=T IUOpen= 4 IOptOp= 5 NList=   0 IFRang= 0 IUIn= 4 IUOut= 2.
 ----------------------------------------------------------------------
 #p b3lyp/6-31G* em=gd3bj ExtraLinks=L608 nosymm scf=maxcyc=-1 guess=re
 ad iop(4/6=222)
 ----------------------------------------------------------------------
 1/38=1,172=1/1;
 2/12=2,15=1,17=6,18=5,40=1/2;
 3/5=1,6=6,7=1,11=2,25=1,30=1,74=-5,116=-2,124=41/1,2,3;
 4/5=1,6=222/1;
 5/5=2,7=-1,38=6/2;
 6/7=2,8=2,9=2,10=2,28=1/1,8;
 99/5=1,9=1/99;
 Leave Link    1 at Mon Jan  8 21:34:10 2024, MaxMem=   104857600 cpu:               0.0 elap:               0.0
 (Enter /home/kangmg/compchem/gaussian/g16/l101.exe)
 --------------
 opted geometry
 --------------
 Symbolic Z-matrix:
 Charge =  0 Multiplicity = 1
 C                    -0.04906  -0.26851   0.89379 
 C                     0.14091  -1.55547   0.50319 
 H                     0.34663  -1.83205  -0.53496 
 H                     0.10822  -2.37936   1.21941 
 H                    -0.23415  -0.06853   1.95594 
 C                    -0.04906   0.9332   -1.34881 
 C                    -0.04906   0.9332    0.00947 
 H                    -0.03591   1.89808   0.53027 
 H                    -0.07799   0.01214  -1.93819 
 H                    -0.03224   1.86463  -1.9189 
 
 ITRead=  0  0  0  0  0  0  0  0  0  0
 MicOpt= -1 -1 -1 -1 -1 -1 -1 -1 -1 -1
 NAtoms=     10 NQM=       10 NQMF=       0 NMMI=      0 NMMIF=      0
                NMic=       0 NMicF=      0.
                    Isotopes and Nuclear Properties:
 (Nuclear quadrupole moments (NQMom) in fm**2, nuclear magnetic moments (NMagM)
  in nuclear magnetons)

  Atom         1           2           3           4           5           6           7           8           9          10
 IAtWgt=          12          12           1           1           1          12          12           1           1           1
 AtmWgt=  12.0000000  12.0000000   1.0078250   1.0078250   1.0078250  12.0000000  12.0000000   1.0078250   1.0078250   1.0078250
 NucSpn=           0           0           1           1           1           0           0           1           1           1
 AtZEff=  -0.0000000  -0.0000000  -0.0000000  -0.0000000  -0.0000000  -0.0000000  -0.0000000  -0.0000000  -0.0000000  -0.0000000
 NQMom=    0.0000000   0.0000000   0.0000000   0.0000000   0.0000000   0.0000000   0.0000000   0.0000000   0.0000000   0.0000000
 NMagM=    0.0000000   0.0000000   2.7928460   2.7928460   2.7928460   0.0000000   0.0000000   2.7928460   2.7928460   2.7928460
 AtZNuc=   6.0000000   6.0000000   1.0000000   1.0000000   1.0000000   6.0000000   6.0000000   1.0000000   1.0000000   1.0000000
 Leave Link  101 at Mon Jan  8 21:34:10 2024, MaxMem=   104857600 cpu:               0.2 elap:               0.2
 (Enter /home/kangmg/compchem/gaussian/g16/l202.exe)
                          Input orientation:                          
 ---------------------------------------------------------------------
 Center     Atomic      Atomic             Coordinates (Angstroms)
 Number     Number       Type             X           Y           Z
 ---------------------------------------------------------------------
      1          6           0       -0.049058   -0.268512    0.893791
      2          6           0        0.140912   -1.555469    0.503190
      3          1           0        0.346632   -1.832052   -0.534956
      4          1           0        0.108220   -2.379365    1.219413
      5          1           0       -0.234152   -0.068528    1.955936
      6          6           0       -0.049058    0.933201   -1.348805
      7          6           0       -0.049058    0.933201    0.009473
      8          1           0       -0.035911    1.898084    0.530274
      9          1           0       -0.077990    0.012138   -1.938189
     10          1           0       -0.032239    1.864632   -1.918896
 ---------------------------------------------------------------------
                    Distance matrix (angstroms):
                    1          2          3          4          5
     1  C    0.000000
     2  C    1.358277   0.000000
     3  H    2.154657   1.093877   0.000000
     4  H    2.141604   1.092176   1.853160   0.000000
     5  H    1.096543   2.112378   3.106746   2.449419   0.000000
     6  C    2.544278   3.107966   2.909561   4.194469   3.458184
     7  C    1.492022   2.544272   2.845979   3.530125   2.196916
     8  H    2.196919   3.458183   3.898073   4.335004   2.437083
     9  H    2.845999   2.909578   2.355930   3.965402   3.898090
    10  H    3.530126   4.194470   3.965389   5.280173   4.334997
                    6          7          8          9         10
     6  C    0.000000
     7  C    1.358279   0.000000
     8  H    2.112372   1.096543   0.000000
     9  H    1.093876   2.154665   3.106746   0.000000
    10  H    1.092177   2.141601   2.449401   1.853159   0.000000
 Symmetry turned off by external request.
 Stoichiometry    C4H6
 Framework group  C1[X(C4H6)]
 Deg. of freedom    24
 Full point group                 C1      NOp   1
 Rotational constants (GHZ):          20.6917365           5.5443220           4.3838331
 Leave Link  202 at Mon Jan  8 21:34:10 2024, MaxMem=   104857600 cpu:               0.0 elap:               0.0
 (Enter /home/kangmg/compchem/gaussian/g16/l301.exe)
 Standard basis: 6-31G(d) (6D, 7F)
 Ernie: Thresh=  0.10000D-02 Tol=  0.10000D-05 Strict=F.
    72 basis functions,   136 primitive gaussians,    72 cartesian basis functions
    15 alpha electrons       15 beta electrons
       nuclear repulsion energy       103.3740315223 Hartrees.
 IExCor=  402 DFT=T Ex+Corr=B3LYP ExCW=0 ScaHFX=  0.200000
 ScaDFX=  0.800000  0.720000  1.000000  0.810000 ScalE2=  1.000000  1.000000
 IRadAn=      5 IRanWt=     -1 IRanGd=            0 ICorTp=0 IEmpDi=141
 NAtoms=   10 NActive=   10 NUniq=   10 SFac= 1.00D+00 NAtFMM=   60 NAOKFM=F Big=F
 Integral buffers will be    131072 words long.
 Raffenetti 2 integral format.
 Two-electron integral symmetry is turned off.
 R6Disp:  Grimme-D3(BJ) Dispersion energy=       -0.0110422179 Hartrees.
 Nuclear repulsion after empirical dispersion term =      103.3629893044 Hartrees.
 Leave Link  301 at Mon Jan  8 21:34:10 2024, MaxMem=   104857600 cpu:               0.0 elap:               0.1
 (Enter /home/kangmg/compchem/gaussian/g16/l302.exe)
 NPDir=0 NMtPBC=     1 NCelOv=     1 NCel=       1 NClECP=     1 NCelD=      1
         NCelK=      1 NCelE2=     1 NClLst=     1 CellRange=     0.0.
 One-electron integrals computed using PRISM.
 NBasis=    72 RedAO= T EigKep=  3.20D-03  NBF=    72
 NBsUse=    72 1.00D-06 EigRej= -1.00D+00 NBFU=    72
 Precomputing XC quadrature grid using
 IXCGrd= 4 IRadAn=           5 IRanWt=          -1 IRanGd=           0 AccXCQ= 0.00D+00.
 Generated NRdTot=       0 NPtTot=           0 NUsed=           0 NTot=          32
 NSgBfM=    72    72    72    72    72 MxSgAt=    10 MxSgA2=    10.
 Leave Link  302 at Mon Jan  8 21:34:11 2024, MaxMem=   104857600 cpu:               0.3 elap:               0.3
 (Enter /home/kangmg/compchem/gaussian/g16/l303.exe)
 DipDrv:  MaxL=1.
 Leave Link  303 at Mon Jan  8 21:34:11 2024, MaxMem=   104857600 cpu:               0.1 elap:               0.0
 (Enter /home/kangmg/compchem/gaussian/g16/l401.exe)
 Initial guess from the checkpoint file:  "/home/kangmg/compchem/gaussian/scratch/Gau-32558.chk"
 B after Tr=     0.000000    0.000000    0.000000
         Rot=    1.000000   -0.000000    0.000000    0.000000 Ang=   0.00 deg.
 Guess basis will be translated and rotated to current coordinates.
 JPrj=0 DoOrth=F DoCkMO=F.
 Initial guess <Sx>= 0.0000 <Sy>= 0.0000 <Sz>= 0.0000 <S**2>= 0.3508 S= 0.2751
 Leave Link  401 at Mon Jan  8 21:34:11 2024, MaxMem=   104857600 cpu:               0.1 elap:               0.1
 (Enter /home/kangmg/compchem/gaussian/g16/l502.exe)
 Keep R1 and R2 ints in memory in canonical form, NReq=7805878.
 FoFCou: FMM=F IPFlag=           0 FMFlag=           0 FMFlg1=           0
         NFxFlg=           0 DoJE=F BraDBF=F KetDBF=F FulRan=T
         wScrn=  0.000000 ICntrl=       600 IOpCl=  0 I1Cent=           0 NGrid=           0
         NMat0=    1 NMatS0=   2628 NMatT0=    0 NMatD0=    1 NMtDS0=    0 NMtDT0=    0
 Symmetry not used in FoFCou.
 Two-electron integral symmetry not used.
 UHF open shell SCF:
 NGot=   104857600 LenX=    97937080 LenY=    97931824
 Requested convergence on RMS density matrix=1.00D-08 within   1 cycles.
 Requested convergence on MAX density matrix=1.00D-06.
 Requested convergence on             energy=1.00D-06.
 No special actions if energy rises.

 Cycle   1  Pass 1  IDiag  1:
 E= -156.178152464859    
 SCF Done:  E(UB3LYP) =  -156.178152465     A.U. after    1 cycles
            NFock=  1  Conv=0.20D+01     -V/T= 2.0140
 <Sx>= 0.0000 <Sy>= 0.0000 <Sz>= 0.0000 <S**2>= 0.3508 S= 0.2751
 <L.S>= 0.000000000000E+00
 KE= 1.540203212104D+02 PE=-5.668849686986D+02 EE= 1.533235057190D+02
 Annihilation of the first spin contaminant:
 S**2 before annihilation     0.3508,   after   -15.4063
 Leave Link  502 at Mon Jan  8 21:34:15 2024, MaxMem=   104857600 cpu:               4.3 elap:               4.3
 (Enter /home/kangmg/compchem/gaussian/g16/l601.exe)
 Copying SCF densities to generalized density rwf, IOpCl= 1 IROHF=0.

 **********************************************************************

            Population analysis using the SCF density.

 **********************************************************************

 Alpha  occ. eigenvalues --  -10.20667 -10.19790  -0.74010  -0.55234  -0.44063
 Alpha  occ. eigenvalues --   -0.39301  -0.26383 -10.22290 -10.19636  -0.75618
 Alpha  occ. eigenvalues --   -0.57225  -0.45655  -0.40637  -0.27298  -0.26636
 Alpha virt. eigenvalues --    0.59427   0.63603   0.64173   0.67046   0.83278
 Alpha virt. eigenvalues --    0.86617   0.92604   0.96405   1.10616   1.45823
 Alpha virt. eigenvalues --    1.56721   1.80065   1.84452   1.91841   2.07605
 Alpha virt. eigenvalues --    2.21560   2.36498   2.58239   2.69244   4.04711
 Alpha virt. eigenvalues --    4.21963  -0.09265   0.02014   0.12378   0.14556
 Alpha virt. eigenvalues --    0.21343   0.33615   0.50040   0.54846   0.00529
 Alpha virt. eigenvalues --    0.11558   0.14052   0.20493   0.31836   0.48868
 Alpha virt. eigenvalues --    0.54404   0.55857   0.60361   0.62792   0.65946
 Alpha virt. eigenvalues --    0.82420   0.85093   0.92101   0.94385   1.09401
 Alpha virt. eigenvalues --    1.44430   1.54341   1.73844   1.81357   1.90703
 Alpha virt. eigenvalues --    2.05092   2.20004   2.34807   2.55613   2.66883
 Alpha virt. eigenvalues --    4.02065   4.20717
  Beta  occ. eigenvalues --  -10.22290 -10.19636  -0.75618  -0.57225  -0.45655
  Beta  occ. eigenvalues --   -0.40637  -0.27298  -0.26636 -10.20667 -10.19791
  Beta  occ. eigenvalues --   -0.74010  -0.55234  -0.44063  -0.39301  -0.26383
  Beta virt. eigenvalues --    0.55857   0.60360   0.62792   0.65946   0.82420
  Beta virt. eigenvalues --    0.85093   0.92101   0.94386   1.09401   1.44430
  Beta virt. eigenvalues --    1.54341   1.73844   1.81357   1.90703   2.05092
  Beta virt. eigenvalues --    2.20004   2.34808   2.55613   2.66883   4.02065
  Beta virt. eigenvalues --    4.20717   0.00529   0.11558   0.14052   0.20493
  Beta virt. eigenvalues --    0.31836   0.48868   0.54404  -0.09265   0.02014
  Beta virt. eigenvalues --    0.12378   0.14556   0.21343   0.33615   0.50040
  Beta virt. eigenvalues --    0.54846   0.59427   0.63603   0.64174   0.67046
  Beta virt. eigenvalues --    0.83278   0.86617   0.92604   0.96405   1.10617
  Beta virt. eigenvalues --    1.45823   1.56721   1.80065   1.84452   1.91841
  Beta virt. eigenvalues --    2.07605   2.21560   2.36498   2.58239   2.69244
  Beta virt. eigenvalues --    4.04711   4.21963
          Condensed to atoms (all electrons):
               1          2          3          4          5          6
     1  C    5.215978   0.651735  -0.034463  -0.032946   0.342614   0.000000
     2  C    0.651735   5.010634   0.368906   0.366205  -0.056777   0.000000
     3  H   -0.034463   0.368906   0.539402  -0.039633   0.004564   0.000000
     4  H   -0.032946   0.366205  -0.039633   0.545278  -0.005826   0.000000
     5  H    0.342614  -0.056777   0.004564  -0.005826   0.559950   0.000000
     6  C    0.000000   0.000000   0.000000   0.000000   0.000000   5.010636
     7  C    0.000000   0.000000   0.000000   0.000000   0.000000   0.651734
     8  H    0.000000   0.000000   0.000000   0.000000   0.000000  -0.056777
     9  H    0.000000   0.000000   0.000000   0.000000   0.000000   0.368906
    10  H    0.000000   0.000000   0.000000   0.000000   0.000000   0.366205
               7          8          9         10
     1  C    0.000000   0.000000   0.000000   0.000000
     2  C    0.000000   0.000000   0.000000   0.000000
     3  H    0.000000   0.000000   0.000000   0.000000
     4  H    0.000000   0.000000   0.000000   0.000000
     5  H    0.000000   0.000000   0.000000   0.000000
     6  C    0.651734  -0.056777   0.368906   0.366205
     7  C    5.215979   0.342614  -0.034463  -0.032946
     8  H    0.342614   0.559951   0.004564  -0.005826
     9  H   -0.034463   0.004564   0.539401  -0.039633
    10  H   -0.032946  -0.005826  -0.039633   0.545279
          Atomic-Atomic Spin Densities.
               1          2          3          4          5          6
     1  C   -1.134708   0.021620   0.008589   0.019583   0.029518   0.000000
     2  C    0.021620   0.185207  -0.009138  -0.008616  -0.007136   0.000000
     3  H    0.008589  -0.009138  -0.041349   0.012996  -0.001235   0.000000
     4  H    0.019583  -0.008616   0.012996  -0.102915   0.007403   0.000000
     5  H    0.029518  -0.007136  -0.001235   0.007403  -0.053403   0.000000
     6  C    0.000000   0.000000   0.000000   0.000000   0.000000  -0.185207
     7  C    0.000000   0.000000   0.000000   0.000000   0.000000  -0.021620
     8  H    0.000000   0.000000   0.000000   0.000000   0.000000   0.007136
     9  H    0.000000   0.000000   0.000000   0.000000   0.000000   0.009138
    10  H    0.000000   0.000000   0.000000   0.000000   0.000000   0.008616
               7          8          9         10
     1  C    0.000000   0.000000   0.000000   0.000000
     2  C    0.000000   0.000000   0.000000   0.000000
     3  H    0.000000   0.000000   0.000000   0.000000
     4  H    0.000000   0.000000   0.000000   0.000000
     5  H    0.000000   0.000000   0.000000   0.000000
     6  C   -0.021620   0.007136   0.009138   0.008616
     7  C    1.134708  -0.029518  -0.008588  -0.019583
     8  H   -0.029518   0.053403   0.001235  -0.007403
     9  H   -0.008588   0.001235   0.041348  -0.012996
    10  H   -0.019583  -0.007403  -0.012996   0.102915
 Mulliken charges and spin densities:
               1          2
     1  C   -0.142918  -1.055398
     2  C   -0.340703   0.181937
     3  H    0.161225  -0.030137
     4  H    0.166921  -0.071549
     5  H    0.155475  -0.024853
     6  C   -0.340703  -0.181937
     7  C   -0.142918   1.055399
     8  H    0.155475   0.024853
     9  H    0.161225   0.030137
    10  H    0.166921   0.071549
 Sum of Mulliken charges =   0.00000  -0.00000
 Mulliken charges and spin densities with hydrogens summed into heavy atoms:
               1          2
     1  C    0.012557  -1.080251
     2  C   -0.012557   0.080251
     6  C   -0.012557  -0.080252
     7  C    0.012557   1.080252
 Electronic spatial extent (au):  <R**2>=            311.8415
 Charge=              0.0000 electrons
 Dipole moment (field-independent basis, Debye):
    X=              0.0023    Y=             -0.0154    Z=             -0.0209  Tot=              0.0260
 Quadrupole moment (field-independent basis, Debye-Ang):
   XX=            -28.6306   YY=            -21.3622   ZZ=            -21.6592
   XY=             -0.3174   XZ=             -0.4923   YZ=             -0.4660
 Traceless Quadrupole moment (field-independent basis, Debye-Ang):
   XX=             -4.7466   YY=              2.5218   ZZ=              2.2248
   XY=             -0.3174   XZ=             -0.4923   YZ=             -0.4660
 Octapole moment (field-independent basis, Debye-Ang**2):
  XXX=             -0.0699  YYY=              0.5054  ZZZ=              0.4289  XYY=              0.7750
  XXY=              0.0397  XXZ=              0.3016  XZZ=             -0.8191  YZZ=              0.2268
  YYZ=              0.3185  XYZ=              0.2412
 Hexadecapole moment (field-independent basis, Debye-Ang**3):
 XXXX=            -32.0516 YYYY=           -202.1463 ZZZZ=           -156.3902 XXXY=              7.4589
 XXXZ=             -1.2256 YYYX=              5.1993 YYYZ=             36.8342 ZZZX=             -2.1795
 ZZZY=             39.9564 XXYY=            -46.9311 XXZZ=            -36.6066 YYZZ=            -56.7409
 XXYZ=             17.4381 YYXZ=             -0.5546 ZZXY=              2.2255
 N-N= 1.033629893044D+02 E-N=-5.668849686986D+02  KE= 1.540203212104D+02
                          Isotropic Fermi Contact Couplings
        Atom                 a.u.       MegaHertz       Gauss      10(-4) cm-1
     1  C(13)             -0.44644    -250.94346     -89.54287     -83.70573
     2  C(13)              0.00705       3.96361       1.41432       1.32212
     3  H(1)              -0.01509     -33.72979     -12.03563     -11.25105
     4  H(1)              -0.03253     -72.71083     -25.94503     -24.25372
     5  H(1)              -0.02306     -51.54544     -18.39270     -17.19371
     6  C(13)             -0.00705      -3.96367      -1.41434      -1.32214
     7  C(13)              0.44645     250.94510      89.54345      83.70627
     8  H(1)               0.02306      51.54618      18.39296      17.19395
     9  H(1)               0.01509      33.72897      12.03533      11.25077
    10  H(1)               0.03253      72.71103      25.94510      24.25379
 --------------------------------------------------------
       Center         ----  Spin Dipole Couplings  ----
                      3XX-RR        3YY-RR        3ZZ-RR
 --------------------------------------------------------
     1   Atom        0.248865     -0.190115     -0.058750
     2   Atom        0.161703     -0.122555     -0.039148
     3   Atom        0.004035     -0.003948     -0.000087
     4   Atom        0.005810     -0.005121     -0.000690
     5   Atom        0.026359      0.007043     -0.033402
     6   Atom       -0.170856      0.043568      0.127287
     7   Atom       -0.242840      0.395691     -0.152851
     8   Atom       -0.029572      0.006094      0.023479
     9   Atom       -0.004440     -0.002779      0.007220
    10   Atom       -0.006276     -0.001623      0.007899
 --------------------------------------------------------
                        XY            XZ            YZ
 --------------------------------------------------------
     1   Atom       -0.056576     -0.000664      0.566067
     2   Atom        0.032176      0.035842     -0.010603
     3   Atom        0.001690      0.001438     -0.005842
     4   Atom        0.001804      0.001770     -0.005025
     5   Atom        0.008311      0.015163     -0.044286
     6   Atom        0.004650      0.001492     -0.010637
     7   Atom        0.021004     -0.015564     -0.504241
     8   Atom        0.001603      0.000166      0.049561
     9   Atom        0.000179      0.000041      0.003895
    10   Atom        0.000271     -0.000018      0.003095
 --------------------------------------------------------


 ---------------------------------------------------------------------------------
              Anisotropic Spin Dipole Couplings in Principal Axis System
 ---------------------------------------------------------------------------------

       Atom             a.u.   MegaHertz   Gauss  10(-4) cm-1        Axes

              Baa    -0.6961   -93.417   -33.333   -31.160  0.0443  0.7470 -0.6634
     1 C(13)  Bbb     0.2435    32.679    11.661    10.901  0.9817  0.0906  0.1675
              Bcc     0.4526    60.737    21.673    20.260 -0.1853  0.6586  0.7293
 
              Baa    -0.1286   -17.259    -6.159    -5.757 -0.1290  0.9774  0.1675
     2 C(13)  Bbb    -0.0423    -5.682    -2.028    -1.895 -0.1416 -0.1853  0.9724
              Bcc     0.1710    22.942     8.186     7.653  0.9815  0.1017  0.1623
 
              Baa    -0.0086    -4.567    -1.629    -1.523 -0.1731  0.7968  0.5789
     3 H(1)   Bbb     0.0041     2.163     0.772     0.722 -0.4168 -0.5918  0.6900
              Bcc     0.0045     2.403     0.858     0.802  0.8924 -0.1219  0.4345
 
              Baa    -0.0088    -4.704    -1.679    -1.569 -0.1673  0.8219  0.5445
     4 H(1)   Bbb     0.0025     1.346     0.480     0.449 -0.1280 -0.5658  0.8146
              Bcc     0.0063     3.359     1.198     1.120  0.9776  0.0665  0.1999
 
              Baa    -0.0651   -34.744   -12.397   -11.589 -0.1853  0.5294  0.8279
     5 H(1)   Bbb     0.0294    15.677     5.594     5.229  0.9647  0.2585  0.0506
              Bcc     0.0357    19.067     6.803     6.360 -0.1872  0.8080 -0.5586
 
              Baa    -0.1710   -22.942    -8.186    -7.653  0.9997 -0.0220 -0.0058
     6 C(13)  Bbb     0.0423     5.682     2.028     1.895  0.0225  0.9920  0.1238
              Bcc     0.1286    17.260     6.159     5.757  0.0030 -0.1239  0.9923
 
              Baa    -0.4526   -60.737   -21.673   -20.260  0.0127  0.5107  0.8597
     7 C(13)  Bbb    -0.2435   -32.679   -11.661   -10.901  0.9995 -0.0303  0.0033
              Bcc     0.6961    93.416    33.333    31.160  0.0277  0.8592 -0.5108
 
              Baa    -0.0357   -19.067    -6.803    -6.360 -0.1793  0.7547 -0.6311
     8 H(1)   Bbb    -0.0294   -15.677    -5.594    -5.229  0.9837  0.1296 -0.1246
              Bcc     0.0651    34.744    12.397    11.589  0.0122  0.6432  0.7656
 
              Baa    -0.0045    -2.403    -0.858    -0.802  0.9271 -0.3567  0.1153
     9 H(1)   Bbb    -0.0041    -2.163    -0.772    -0.722  0.3747  0.8759 -0.3040
              Bcc     0.0086     4.567     1.629     1.523  0.0075  0.3250  0.9457
 
              Baa    -0.0063    -3.359    -1.199    -1.120  0.9975 -0.0686  0.0162
    10 H(1)   Bbb    -0.0025    -1.346    -0.480    -0.449  0.0704  0.9563 -0.2839
              Bcc     0.0088     4.704     1.679     1.569  0.0040  0.2843  0.9587
 

 ---------------------------------------------------------------------------------

 No NMR shielding tensors so no spin-rotation constants.
 Leave Link  601 at Mon Jan  8 21:34:15 2024, MaxMem=   104857600 cpu:               0.2 elap:               0.2
 (Enter /home/kangmg/compchem/gaussian/g16/l608.exe)
 IExCor=  402 DFT=T Ex+Corr=B3LYP ExCW=0 ScaHFX=  0.200000
 ScaDFX=  0.800000  0.720000  1.000000  0.810000 ScalE2=  1.000000  1.000000
 IRadAn=      5 IRanWt=     -1 IRanGd=            0 ICorTp=0 IEmpDi=  4
 A total of   1 models will be applied.

 Results using SCF density:
 FoFJK:  IHMeth= 0 ICntrl=     500 DoSepK=F KAlg= 0 I1Cent=           0 FoldK=F
 IRaf=         0 NMat=       2 IRICut=       1 DoRegI=T DoRafI=F ISym2E= 0 IDoP0=0 IntGTp=1.
 FoFCou: FMM=F IPFlag=           0 FMFlag=           0 FMFlg1=           0
         NFxFlg=           0 DoJE=F BraDBF=F KetDBF=F FulRan=T
         wScrn=  0.000000 ICntrl=       500 IOpCl=  1 I1Cent=           0 NGrid=           0
         NMat0=    2 NMatS0=      2 NMatT0=    0 NMatD0=    2 NMtDS0=    0 NMtDT0=    0
 Symmetry not used in FoFCou.
 ET=  154.020321 EV= -566.884969 EJ=  177.177610 EK=  -22.935119 ENuc=  103.362989

 A=0 I=   1 IExCor=  402 IRadAn=       5 ScaHFX=  0.200000
            ScaDFX=  0.800000  0.720000  1.000000  0.810000
 HFx=  0.000000  0.000000  1.000000  0.000000  0.000000
 DFx=  0.000000  0.000000  1.000000  0.000000  0.000000
 DFc=  0.000000  0.000000  1.000000  0.000000  0.000000
            ENTVJ= -132.324048 Ex=  -22.617024 Ec=   -1.237081 ETotM2e= -328.7687386847  ETot= -156.1781524649
 Leave Link  608 at Mon Jan  8 21:34:18 2024, MaxMem=   104857600 cpu:               2.1 elap:               2.1
 (Enter /home/kangmg/compchem/gaussian/g16/l9999.exe)

 Test job not archived.
 1\1\GINC-KANGMG-22\SP\UB3LYP\6-31G(d)\C4H6\KANGMG\08-Jan-2024\0\\#p b3
 lyp/6-31G* em=gd3bj ExtraLinks=L608 nosymm scf=maxcyc=-1 guess=read io
 p(4/6=222)\\opted geometry\\0,1\C,0,-0.04905811,-0.26851168,0.89379083
 \C,0,0.14091234,-1.55546913,0.50319023\H,0,0.34663169,-1.83205244,-0.5
 3495581\H,0,0.10822036,-2.37936498,1.21941341\H,0,-0.23415206,-0.06852
 765,1.95593646\C,0,-0.04905811,0.93320051,-1.34880531\C,0,-0.04905811,
 0.93320051,0.00947319\H,0,-0.03591138,1.89808418,0.53027436\H,0,-0.077
 98974,0.01213844,-1.93818875\H,0,-0.03223856,1.86463239,-1.91889566\\V
 ersion=ES64L-G16RevA.03\HF=-156.1781525\S2=0.350802\S2-1=0.\S2A=-15.40
 6275\RMSD=2.000e+00\Dipole=0.0008928,-0.0060478,-0.0082232\Quadrupole=
 -3.5290153,1.8748997,1.6541156,-0.2359548,-0.3660048,-0.3464493\PG=C01
  [X(C4H6)]\\@


 MYSTERY IS THE WISDOM OF BLOCKHEADS... HORACE WALPOLE 
 Job cpu time:       0 days  0 hours  0 minutes  7.5 seconds.
 Elapsed time:       0 days  0 hours  0 minutes  7.5 seconds.
 File lengths (MBytes):  RWF=      6 Int=      0 D2E=      0 Chk=      1 Scr=      1
 Normal termination of Gaussian 16 at Mon Jan  8 21:34:18 2024.
