 Entering Gaussian System, Link 0=g16
 Initial command:
 /home/kangmg/compchem/gaussian/g16/l1.exe "/home/kangmg/compchem/gaussian/scratch/Gau-32889.inp" -scrdir="/home/kangmg/compchem/gaussian/scratch/"
 Entering Link 1 = /home/kangmg/compchem/gaussian/g16/l1.exe PID=     32891.
  
 Copyright (c) 1988,1990,1992,1993,1995,1998,2003,2009,2016,
            Gaussian, Inc.  All Rights Reserved.
  
 This is part of the Gaussian(R) 16 program.  It is based on
 the Gaussian(R) 09 system (copyright 2009, Gaussian, Inc.),
 the Gaussian(R) 03 system (copyright 2003, Gaussian, Inc.),
 the Gaussian(R) 98 system (copyright 1998, Gaussian, Inc.),
 the Gaussian(R) 94 system (copyright 1995, Gaussian, Inc.),
 the Gaussian 92(TM) system (copyright 1992, Gaussian, Inc.),
 the Gaussian 90(TM) system (copyright 1990, Gaussian, Inc.),
 the Gaussian 88(TM) system (copyright 1988, Gaussian, Inc.),
 the Gaussian 86(TM) system (copyright 1986, Carnegie Mellon
 University), and the Gaussian 82(TM) system (copyright 1983,
 Carnegie Mellon University). Gaussian is a federally registered
 trademark of Gaussian, Inc.
  
 This software contains proprietary and confidential information,
 including trade secrets, belonging to Gaussian, Inc.
  
 This software is provided under written license and may be
 used, copied, transmitted, or stored only in accord with that
 written license.
  
 The following legend is applicable only to US Government
 contracts under FAR:
  
                    RESTRICTED RIGHTS LEGEND
  
 Use, reproduction and disclosure by the US Government is
 subject to restrictions as set forth in subparagraphs (a)
 and (c) of the Commercial Computer Software - Restricted
 Rights clause in FAR 52.227-19.
  
 Gaussian, Inc.
 340 Quinnipiac St., Bldg. 40, Wallingford CT 06492
  
  
 ---------------------------------------------------------------
 Warning -- This program may not be used in any manner that
 competes with the business of Gaussian, Inc. or will provide
 assistance to any competitor of Gaussian, Inc.  The licensee
 of this program is prohibited from giving any competitor of
 Gaussian, Inc. access to this program.  By using this program,
 the user acknowledges that Gaussian, Inc. is engaged in the
 business of creating and licensing software in the field of
 computational chemistry and represents and warrants to the
 licensee that it is not a competitor of Gaussian, Inc. and that
 it will not use this program in any manner prohibited above.
 ---------------------------------------------------------------
  

 Cite this work as:
 Gaussian 16, Revision A.03,
 M. J. Frisch, G. W. Trucks, H. B. Schlegel, G. E. Scuseria, 
 M. A. Robb, J. R. Cheeseman, G. Scalmani, V. Barone, 
 G. A. Petersson, H. Nakatsuji, X. Li, M. Caricato, A. V. Marenich, 
 J. Bloino, B. G. Janesko, R. Gomperts, B. Mennucci, H. P. Hratchian, 
 J. V. Ortiz, A. F. Izmaylov, J. L. Sonnenberg, D. Williams-Young, 
 F. Ding, F. Lipparini, F. Egidi, J. Goings, B. Peng, A. Petrone, 
 T. Henderson, D. Ranasinghe, V. G. Zakrzewski, J. Gao, N. Rega, 
 G. Zheng, W. Liang, M. Hada, M. Ehara, K. Toyota, R. Fukuda, 
 J. Hasegawa, M. Ishida, T. Nakajima, Y. Honda, O. Kitao, H. Nakai, 
 T. Vreven, K. Throssell, J. A. Montgomery, Jr., J. E. Peralta, 
 F. Ogliaro, M. J. Bearpark, J. J. Heyd, E. N. Brothers, K. N. Kudin, 
 V. N. Staroverov, T. A. Keith, R. Kobayashi, J. Normand, 
 K. Raghavachari, A. P. Rendell, J. C. Burant, S. S. Iyengar, 
 J. Tomasi, M. Cossi, J. M. Millam, M. Klene, C. Adamo, R. Cammi, 
 J. W. Ochterski, R. L. Martin, K. Morokuma, O. Farkas, 
 J. B. Foresman, and D. J. Fox, Gaussian, Inc., Wallingford CT, 2016.
 
 ******************************************
 Gaussian 16:  ES64L-G16RevA.03 25-Dec-2016
                 8-Jan-2024 
 ******************************************
 %chk=3_final.chk
 %oldchk=3_promol.chk
 Copying data from "3_promol.chk" to current chk file "3_final.chk"
 IOpt=  2 FromEx=T IUOpen= 4 IOptOp= 5 NList=   0 IFRang= 0 IUIn= 4 IUOut= 2.
 ----------------------------------------------------------
 #p b3lyp/6-31G* em=gd3bj ExtraLinks=L608 nosymm guess=read
 ----------------------------------------------------------
 1/38=1,172=1/1;
 2/12=2,15=1,17=6,18=5,40=1/2;
 3/5=1,6=6,7=1,11=2,25=1,30=1,74=-5,116=-2,124=41/1,2,3;
 4/5=1/1;
 5/5=2,38=6/2;
 6/7=2,8=2,9=2,10=2,28=1/1,8;
 99/5=1,9=1/99;
 Leave Link    1 at Mon Jan  8 21:35:51 2024, MaxMem=   104857600 cpu:               0.0 elap:               0.0
 (Enter /home/kangmg/compchem/gaussian/g16/l101.exe)
 --------------
 opted geometry
 --------------
 Symbolic Z-matrix:
 Charge =  0 Multiplicity = 1
 C                    -0.09722  -0.28112   0.88395 
 C                     0.27909  -1.53208   0.5129 
 H                     0.6674   -1.75443  -0.48528 
 H                     0.2274   -2.37404   1.20675 
 H                    -0.44927  -0.12175   1.91034 
 C                    -0.09722   0.92749  -1.34855 
 C                    -0.09722   0.92749   0.00947 
 H                    -0.08276   1.89044   0.53421 
 H                    -0.14095   0.00434  -1.93375 
 H                    -0.07208   1.85787  -1.92017 
 
 ITRead=  0  0  0  0  0  0  0  0  0  0
 MicOpt= -1 -1 -1 -1 -1 -1 -1 -1 -1 -1
 NAtoms=     10 NQM=       10 NQMF=       0 NMMI=      0 NMMIF=      0
                NMic=       0 NMicF=      0.
                    Isotopes and Nuclear Properties:
 (Nuclear quadrupole moments (NQMom) in fm**2, nuclear magnetic moments (NMagM)
  in nuclear magnetons)

  Atom         1           2           3           4           5           6           7           8           9          10
 IAtWgt=          12          12           1           1           1          12          12           1           1           1
 AtmWgt=  12.0000000  12.0000000   1.0078250   1.0078250   1.0078250  12.0000000  12.0000000   1.0078250   1.0078250   1.0078250
 NucSpn=           0           0           1           1           1           0           0           1           1           1
 AtZEff=  -0.0000000  -0.0000000  -0.0000000  -0.0000000  -0.0000000  -0.0000000  -0.0000000  -0.0000000  -0.0000000  -0.0000000
 NQMom=    0.0000000   0.0000000   0.0000000   0.0000000   0.0000000   0.0000000   0.0000000   0.0000000   0.0000000   0.0000000
 NMagM=    0.0000000   0.0000000   2.7928460   2.7928460   2.7928460   0.0000000   0.0000000   2.7928460   2.7928460   2.7928460
 AtZNuc=   6.0000000   6.0000000   1.0000000   1.0000000   1.0000000   6.0000000   6.0000000   1.0000000   1.0000000   1.0000000
 Leave Link  101 at Mon Jan  8 21:35:51 2024, MaxMem=   104857600 cpu:               0.2 elap:               0.4
 (Enter /home/kangmg/compchem/gaussian/g16/l202.exe)
                          Input orientation:                          
 ---------------------------------------------------------------------
 Center     Atomic      Atomic             Coordinates (Angstroms)
 Number     Number       Type             X           Y           Z
 ---------------------------------------------------------------------
      1          6           0       -0.097223   -0.281116    0.883951
      2          6           0        0.279093   -1.532085    0.512905
      3          1           0        0.667400   -1.754427   -0.485279
      4          1           0        0.227404   -2.374035    1.206754
      5          1           0       -0.449266   -0.121751    1.910344
      6          6           0       -0.097223    0.927494   -1.348549
      7          6           0       -0.097223    0.927494    0.009468
      8          1           0       -0.082756    1.890444    0.534207
      9          1           0       -0.140951    0.004343   -1.933755
     10          1           0       -0.072083    1.857871   -1.920171
 ---------------------------------------------------------------------
                    Distance matrix (angstroms):
                    1          2          3          4          5
     1  C    0.000000
     2  C    1.358018   0.000000
     3  H    2.151763   1.093887   0.000000
     4  H    2.142404   1.092236   1.854854   0.000000
     5  H    1.096729   2.114802   3.106700   2.454732   0.000000
     6  C    2.538660   3.107435   2.919347   4.187488   3.441691
     7  C    1.491797   2.538620   2.832336   3.526893   2.199586
     8  H    2.199592   3.441670   3.858390   4.328314   2.465159
     9  H    2.832466   2.919450   2.417599   3.956661   3.858504
    10  H    3.526896   4.187480   3.956570   5.270331   4.328281
                    6          7          8          9         10
     6  C    0.000000
     7  C    1.358017   0.000000
     8  H    2.114770   1.096737   0.000000
     9  H    1.093886   2.151798   3.106702   0.000000
    10  H    1.092238   2.142368   2.454618   1.854857   0.000000
 Symmetry turned off by external request.
 Stoichiometry    C4H6
 Framework group  C1[X(C4H6)]
 Deg. of freedom    24
 Full point group                 C1      NOp   1
 Rotational constants (GHZ):          20.6956384           5.5357248           4.4094346
 Leave Link  202 at Mon Jan  8 21:35:51 2024, MaxMem=   104857600 cpu:               0.0 elap:               0.0
 (Enter /home/kangmg/compchem/gaussian/g16/l301.exe)
 Standard basis: 6-31G(d) (6D, 7F)
 Ernie: Thresh=  0.10000D-02 Tol=  0.10000D-05 Strict=F.
    72 basis functions,   136 primitive gaussians,    72 cartesian basis functions
    15 alpha electrons       15 beta electrons
       nuclear repulsion energy       103.4208010002 Hartrees.
 IExCor=  402 DFT=T Ex+Corr=B3LYP ExCW=0 ScaHFX=  0.200000
 ScaDFX=  0.800000  0.720000  1.000000  0.810000 ScalE2=  1.000000  1.000000
 IRadAn=      5 IRanWt=     -1 IRanGd=            0 ICorTp=0 IEmpDi=141
 NAtoms=   10 NActive=   10 NUniq=   10 SFac= 1.00D+00 NAtFMM=   60 NAOKFM=F Big=F
 Integral buffers will be    131072 words long.
 Raffenetti 2 integral format.
 Two-electron integral symmetry is turned off.
 R6Disp:  Grimme-D3(BJ) Dispersion energy=       -0.0110500985 Hartrees.
 Nuclear repulsion after empirical dispersion term =      103.4097509017 Hartrees.
 Leave Link  301 at Mon Jan  8 21:35:51 2024, MaxMem=   104857600 cpu:               0.1 elap:               0.1
 (Enter /home/kangmg/compchem/gaussian/g16/l302.exe)
 NPDir=0 NMtPBC=     1 NCelOv=     1 NCel=       1 NClECP=     1 NCelD=      1
         NCelK=      1 NCelE2=     1 NClLst=     1 CellRange=     0.0.
 One-electron integrals computed using PRISM.
 NBasis=    72 RedAO= T EigKep=  3.41D-03  NBF=    72
 NBsUse=    72 1.00D-06 EigRej= -1.00D+00 NBFU=    72
 Precomputing XC quadrature grid using
 IXCGrd= 4 IRadAn=           5 IRanWt=          -1 IRanGd=           0 AccXCQ= 0.00D+00.
 Generated NRdTot=       0 NPtTot=           0 NUsed=           0 NTot=          32
 NSgBfM=    72    72    72    72    72 MxSgAt=    10 MxSgA2=    10.
 Leave Link  302 at Mon Jan  8 21:35:52 2024, MaxMem=   104857600 cpu:               0.3 elap:               0.3
 (Enter /home/kangmg/compchem/gaussian/g16/l303.exe)
 DipDrv:  MaxL=1.
 Leave Link  303 at Mon Jan  8 21:35:52 2024, MaxMem=   104857600 cpu:               0.1 elap:               0.0
 (Enter /home/kangmg/compchem/gaussian/g16/l401.exe)
 Initial guess from the checkpoint file:  "3_final.chk"
 B after Tr=    -0.000000    0.000000   -0.000000
         Rot=    1.000000    0.000000   -0.000000    0.000000 Ang=   0.00 deg.
 Guess basis will be translated and rotated to current coordinates.
 JPrj=2 DoOrth=T DoCkMO=T.
 Initial guess <Sx>= 0.0000 <Sy>= 0.0000 <Sz>= 0.0000 <S**2>= 0.6227 S= 0.4342
 Leave Link  401 at Mon Jan  8 21:35:52 2024, MaxMem=   104857600 cpu:               0.1 elap:               0.1
 (Enter /home/kangmg/compchem/gaussian/g16/l502.exe)
 Keep R1 and R2 ints in memory in canonical form, NReq=7805935.
 FoFCou: FMM=F IPFlag=           0 FMFlag=           0 FMFlg1=           0
         NFxFlg=           0 DoJE=F BraDBF=F KetDBF=F FulRan=T
         wScrn=  0.000000 ICntrl=       600 IOpCl=  0 I1Cent=           0 NGrid=           0
         NMat0=    1 NMatS0=   2628 NMatT0=    0 NMatD0=    1 NMtDS0=    0 NMtDT0=    0
 Symmetry not used in FoFCou.
 Two-electron integral symmetry not used.
 UHF open shell SCF:
 Using DIIS extrapolation, IDIIS=  1040.
 NGot=   104857600 LenX=    97936966 LenY=    97931341
 Requested convergence on RMS density matrix=1.00D-08 within 128 cycles.
 Requested convergence on MAX density matrix=1.00D-06.
 Requested convergence on             energy=1.00D-06.
 No special actions if energy rises.

 Cycle   1  Pass 1  IDiag  1:
 E= -155.720252056674    
 DIIS: error= 4.15D-02 at cycle   1 NSaved=   1.
 NSaved= 1 IEnMin= 1 EnMin= -155.720252056674     IErMin= 1 ErrMin= 4.15D-02
 ErrMax= 4.15D-02  0.00D+00 EMaxC= 1.00D-01 BMatC= 3.77D-01 BMatP= 3.77D-01
 IDIUse=3 WtCom= 5.85D-01 WtEn= 4.15D-01
 Coeff-Com:  0.100D+01
 Coeff-En:   0.100D+01
 Coeff:      0.100D+01
 Gap=     1.000 Goal=   None    Shift=    0.000
 Gap=     0.977 Goal=   None    Shift=    0.000
 GapD=    0.977 DampG=2.000 DampE=0.500 DampFc=1.0000 IDamp=-1.
 RMSDP=1.07D-02 MaxDP=1.61D-01              OVMax= 2.59D-01

 Cycle   2  Pass 1  IDiag  1:
 E= -155.968097741104     Delta-E=       -0.247845684429 Rises=F Damp=F
 DIIS: error= 1.44D-02 at cycle   2 NSaved=   2.
 NSaved= 2 IEnMin= 2 EnMin= -155.968097741104     IErMin= 2 ErrMin= 1.44D-02
 ErrMax= 1.44D-02  0.00D+00 EMaxC= 1.00D-01 BMatC= 6.76D-02 BMatP= 3.77D-01
 IDIUse=3 WtCom= 8.56D-01 WtEn= 1.44D-01
 Coeff-Com:  0.739D-01 0.926D+00
 Coeff-En:   0.000D+00 0.100D+01
 Coeff:      0.632D-01 0.937D+00
 Gap=     0.200 Goal=   None    Shift=    0.000
 Gap=     0.200 Goal=   None    Shift=    0.000
 RMSDP=4.02D-03 MaxDP=6.23D-02 DE=-2.48D-01 OVMax= 1.13D-01

 Cycle   3  Pass 1  IDiag  1:
 E= -155.958507214527     Delta-E=        0.009590526577 Rises=F Damp=F
 DIIS: error= 2.21D-02 at cycle   3 NSaved=   3.
 NSaved= 3 IEnMin= 2 EnMin= -155.968097741104     IErMin= 2 ErrMin= 1.44D-02
 ErrMax= 2.21D-02  0.00D+00 EMaxC= 1.00D-01 BMatC= 1.33D-01 BMatP= 6.76D-02
 IDIUse=2 WtCom= 0.00D+00 WtEn= 1.00D+00
 Coeff-En:   0.000D+00 0.591D+00 0.409D+00
 Coeff:      0.000D+00 0.591D+00 0.409D+00
 Gap=     0.196 Goal=   None    Shift=    0.000
 Gap=     0.196 Goal=   None    Shift=    0.000
 RMSDP=2.57D-03 MaxDP=3.88D-02 DE= 9.59D-03 OVMax= 9.82D-02

 Cycle   4  Pass 1  IDiag  1:
 E= -155.993300351392     Delta-E=       -0.034793136865 Rises=F Damp=F
 DIIS: error= 3.17D-03 at cycle   4 NSaved=   4.
 NSaved= 4 IEnMin= 4 EnMin= -155.993300351392     IErMin= 4 ErrMin= 3.17D-03
 ErrMax= 3.17D-03  0.00D+00 EMaxC= 1.00D-01 BMatC= 6.01D-03 BMatP= 6.76D-02
 IDIUse=3 WtCom= 9.68D-01 WtEn= 3.17D-02
 Coeff-Com: -0.448D-01-0.612D-01 0.154D+00 0.952D+00
 Coeff-En:   0.000D+00 0.000D+00 0.000D+00 0.100D+01
 Coeff:     -0.434D-01-0.593D-01 0.149D+00 0.954D+00
 Gap=     0.199 Goal=   None    Shift=    0.000
 Gap=     0.199 Goal=   None    Shift=    0.000
 RMSDP=8.54D-04 MaxDP=1.31D-02 DE=-3.48D-02 OVMax= 2.27D-02

 Cycle   5  Pass 1  IDiag  1:
 E= -155.995680655397     Delta-E=       -0.002380304006 Rises=F Damp=F
 DIIS: error= 6.92D-04 at cycle   5 NSaved=   5.
 NSaved= 5 IEnMin= 5 EnMin= -155.995680655397     IErMin= 5 ErrMin= 6.92D-04
 ErrMax= 6.92D-04  0.00D+00 EMaxC= 1.00D-01 BMatC= 2.01D-04 BMatP= 6.01D-03
 IDIUse=3 WtCom= 9.93D-01 WtEn= 6.92D-03
 Coeff-Com:  0.262D-02-0.619D-01-0.202D-01 0.139D+00 0.940D+00
 Coeff-En:   0.000D+00 0.000D+00 0.000D+00 0.000D+00 0.100D+01
 Coeff:      0.260D-02-0.614D-01-0.201D-01 0.138D+00 0.941D+00
 Gap=     0.199 Goal=   None    Shift=    0.000
 Gap=     0.199 Goal=   None    Shift=    0.000
 RMSDP=2.41D-04 MaxDP=4.83D-03 DE=-2.38D-03 OVMax= 1.17D-02

 Cycle   6  Pass 1  IDiag  1:
 E= -155.995883503711     Delta-E=       -0.000202848313 Rises=F Damp=F
 DIIS: error= 5.22D-04 at cycle   6 NSaved=   6.
 NSaved= 6 IEnMin= 6 EnMin= -155.995883503711     IErMin= 6 ErrMin= 5.22D-04
 ErrMax= 5.22D-04  0.00D+00 EMaxC= 1.00D-01 BMatC= 5.52D-05 BMatP= 2.01D-04
 IDIUse=3 WtCom= 9.95D-01 WtEn= 5.22D-03
 Coeff-Com:  0.230D-02-0.757D-02-0.131D-01-0.397D-01 0.215D+00 0.843D+00
 Coeff-En:   0.000D+00 0.000D+00 0.000D+00 0.000D+00 0.000D+00 0.100D+01
 Coeff:      0.229D-02-0.753D-02-0.130D-01-0.395D-01 0.214D+00 0.844D+00
 Gap=     0.199 Goal=   None    Shift=    0.000
 Gap=     0.199 Goal=   None    Shift=    0.000
 RMSDP=1.41D-04 MaxDP=3.04D-03 DE=-2.03D-04 OVMax= 8.37D-03

 Cycle   7  Pass 1  IDiag  1:
 E= -155.995970171019     Delta-E=       -0.000086667309 Rises=F Damp=F
 DIIS: error= 4.13D-04 at cycle   7 NSaved=   7.
 NSaved= 7 IEnMin= 7 EnMin= -155.995970171019     IErMin= 7 ErrMin= 4.13D-04
 ErrMax= 4.13D-04  0.00D+00 EMaxC= 1.00D-01 BMatC= 2.61D-05 BMatP= 5.52D-05
 IDIUse=3 WtCom= 9.96D-01 WtEn= 4.13D-03
 Coeff-Com: -0.127D-02 0.309D-01 0.845D-02-0.781D-01-0.454D+00 0.539D-01
 Coeff-Com:  0.144D+01
 Coeff-En:   0.000D+00 0.000D+00 0.000D+00 0.000D+00 0.000D+00 0.000D+00
 Coeff-En:   0.100D+01
 Coeff:     -0.127D-02 0.307D-01 0.842D-02-0.778D-01-0.452D+00 0.537D-01
 Coeff:      0.144D+01
 Gap=     0.198 Goal=   None    Shift=    0.000
 Gap=     0.198 Goal=   None    Shift=    0.000
 RMSDP=2.26D-04 MaxDP=4.96D-03 DE=-8.67D-05 OVMax= 1.44D-02

 Cycle   8  Pass 1  IDiag  1:
 E= -155.996062717707     Delta-E=       -0.000092546687 Rises=F Damp=F
 DIIS: error= 2.19D-04 at cycle   8 NSaved=   8.
 NSaved= 8 IEnMin= 8 EnMin= -155.996062717707     IErMin= 8 ErrMin= 2.19D-04
 ErrMax= 2.19D-04  0.00D+00 EMaxC= 1.00D-01 BMatC= 7.15D-06 BMatP= 2.61D-05
 IDIUse=3 WtCom= 9.98D-01 WtEn= 2.19D-03
 Coeff-Com: -0.158D-02 0.974D-02 0.706D-02 0.483D-02-0.205D+00-0.386D+00
 Coeff-Com:  0.306D+00 0.126D+01
 Coeff-En:   0.000D+00 0.000D+00 0.000D+00 0.000D+00 0.000D+00 0.000D+00
 Coeff-En:   0.000D+00 0.100D+01
 Coeff:     -0.158D-02 0.972D-02 0.704D-02 0.482D-02-0.205D+00-0.385D+00
 Coeff:      0.306D+00 0.126D+01
 Gap=     0.198 Goal=   None    Shift=    0.000
 Gap=     0.198 Goal=   None    Shift=    0.000
 RMSDP=1.79D-04 MaxDP=3.84D-03 DE=-9.25D-05 OVMax= 1.16D-02

 Cycle   9  Pass 1  IDiag  1:
 E= -155.996093312660     Delta-E=       -0.000030594953 Rises=F Damp=F
 DIIS: error= 5.27D-05 at cycle   9 NSaved=   9.
 NSaved= 9 IEnMin= 9 EnMin= -155.996093312660     IErMin= 9 ErrMin= 5.27D-05
 ErrMax= 5.27D-05  0.00D+00 EMaxC= 1.00D-01 BMatC= 5.29D-07 BMatP= 7.15D-06
 IDIUse=1 WtCom= 1.00D+00 WtEn= 0.00D+00
 Coeff-Com:  0.150D-03-0.365D-02-0.308D-03 0.107D-01 0.393D-01-0.545D-01
 Coeff-Com: -0.186D+00 0.146D+00 0.105D+01
 Coeff:      0.150D-03-0.365D-02-0.308D-03 0.107D-01 0.393D-01-0.545D-01
 Coeff:     -0.186D+00 0.146D+00 0.105D+01
 Gap=     0.198 Goal=   None    Shift=    0.000
 Gap=     0.198 Goal=   None    Shift=    0.000
 RMSDP=4.69D-05 MaxDP=1.02D-03 DE=-3.06D-05 OVMax= 3.07D-03

 Cycle  10  Pass 1  IDiag  1:
 E= -155.996095090939     Delta-E=       -0.000001778279 Rises=F Damp=F
 DIIS: error= 9.07D-06 at cycle  10 NSaved=  10.
 NSaved=10 IEnMin=10 EnMin= -155.996095090939     IErMin=10 ErrMin= 9.07D-06
 ErrMax= 9.07D-06  0.00D+00 EMaxC= 1.00D-01 BMatC= 2.10D-08 BMatP= 5.29D-07
 IDIUse=1 WtCom= 1.00D+00 WtEn= 0.00D+00
 Coeff-Com:  0.107D-03-0.724D-03-0.454D-03-0.144D-03 0.140D-01 0.248D-01
 Coeff-Com: -0.237D-01-0.875D-01-0.424D-02 0.108D+01
 Coeff:      0.107D-03-0.724D-03-0.454D-03-0.144D-03 0.140D-01 0.248D-01
 Coeff:     -0.237D-01-0.875D-01-0.424D-02 0.108D+01
 Gap=     0.198 Goal=   None    Shift=    0.000
 Gap=     0.198 Goal=   None    Shift=    0.000
 RMSDP=7.37D-06 MaxDP=1.64D-04 DE=-1.78D-06 OVMax= 4.89D-04

 Cycle  11  Pass 1  IDiag  1:
 E= -155.996095134264     Delta-E=       -0.000000043324 Rises=F Damp=F
 DIIS: error= 1.87D-06 at cycle  11 NSaved=  11.
 NSaved=11 IEnMin=11 EnMin= -155.996095134264     IErMin=11 ErrMin= 1.87D-06
 ErrMax= 1.87D-06  0.00D+00 EMaxC= 1.00D-01 BMatC= 1.41D-09 BMatP= 2.10D-08
 IDIUse=1 WtCom= 1.00D+00 WtEn= 0.00D+00
 Coeff-Com: -0.173D-05 0.187D-03-0.195D-04-0.743D-03-0.141D-02 0.594D-02
 Coeff-Com:  0.100D-01-0.170D-01-0.647D-01 0.578D-01 0.101D+01
 Coeff:     -0.173D-05 0.187D-03-0.195D-04-0.743D-03-0.141D-02 0.594D-02
 Coeff:      0.100D-01-0.170D-01-0.647D-01 0.578D-01 0.101D+01
 Gap=     0.198 Goal=   None    Shift=    0.000
 Gap=     0.198 Goal=   None    Shift=    0.000
 RMSDP=8.56D-07 MaxDP=2.03D-05 DE=-4.33D-08 OVMax= 5.97D-05

 Cycle  12  Pass 1  IDiag  1:
 E= -155.996095134770     Delta-E=       -0.000000000506 Rises=F Damp=F
 DIIS: error= 2.10D-06 at cycle  12 NSaved=  12.
 NSaved=12 IEnMin=12 EnMin= -155.996095134770     IErMin=11 ErrMin= 1.87D-06
 ErrMax= 2.10D-06  0.00D+00 EMaxC= 1.00D-01 BMatC= 1.50D-09 BMatP= 1.41D-09
 IDIUse=1 WtCom= 1.00D+00 WtEn= 0.00D+00
 Coeff-Com: -0.768D-05 0.165D-03 0.130D-04-0.464D-03-0.174D-02 0.219D-02
 Coeff-Com:  0.778D-02-0.528D-02-0.398D-01-0.329D-01 0.641D+00 0.430D+00
 Coeff:     -0.768D-05 0.165D-03 0.130D-04-0.464D-03-0.174D-02 0.219D-02
 Coeff:      0.778D-02-0.528D-02-0.398D-01-0.329D-01 0.641D+00 0.430D+00
 Gap=     0.198 Goal=   None    Shift=    0.000
 Gap=     0.198 Goal=   None    Shift=    0.000
 RMSDP=2.80D-07 MaxDP=5.71D-06 DE=-5.06D-10 OVMax= 1.62D-05

 Cycle  13  Pass 1  IDiag  1:
 E= -155.996095135188     Delta-E=       -0.000000000418 Rises=F Damp=F
 DIIS: error= 4.07D-07 at cycle  13 NSaved=  13.
 NSaved=13 IEnMin=13 EnMin= -155.996095135188     IErMin=13 ErrMin= 4.07D-07
 ErrMax= 4.07D-07  0.00D+00 EMaxC= 1.00D-01 BMatC= 5.44D-11 BMatP= 1.41D-09
 IDIUse=1 WtCom= 1.00D+00 WtEn= 0.00D+00
 Coeff-Com: -0.187D-05 0.410D-05 0.581D-05 0.476D-04-0.151D-03-0.950D-03
 Coeff-Com: -0.224D-03 0.297D-02 0.558D-02-0.278D-01-0.639D-01 0.130D+00
 Coeff-Com:  0.954D+00
 Coeff:     -0.187D-05 0.410D-05 0.581D-05 0.476D-04-0.151D-03-0.950D-03
 Coeff:     -0.224D-03 0.297D-02 0.558D-02-0.278D-01-0.639D-01 0.130D+00
 Coeff:      0.954D+00
 Gap=     0.198 Goal=   None    Shift=    0.000
 Gap=     0.198 Goal=   None    Shift=    0.000
 RMSDP=8.13D-08 MaxDP=1.45D-06 DE=-4.18D-10 OVMax= 4.10D-06

 Cycle  14  Pass 1  IDiag  1:
 E= -155.996095135207     Delta-E=       -0.000000000019 Rises=F Damp=F
 DIIS: error= 3.03D-08 at cycle  14 NSaved=  14.
 NSaved=14 IEnMin=14 EnMin= -155.996095135207     IErMin=14 ErrMin= 3.03D-08
 ErrMax= 3.03D-08  0.00D+00 EMaxC= 1.00D-01 BMatC= 5.76D-13 BMatP= 5.44D-11
 IDIUse=1 WtCom= 1.00D+00 WtEn= 0.00D+00
 Coeff-Com:  0.319D-07-0.518D-05 0.845D-06 0.217D-04 0.341D-04-0.189D-03
 Coeff-Com: -0.285D-03 0.557D-03 0.198D-02-0.190D-02-0.317D-01 0.291D-02
 Coeff-Com:  0.132D+00 0.897D+00
 Coeff:      0.319D-07-0.518D-05 0.845D-06 0.217D-04 0.341D-04-0.189D-03
 Coeff:     -0.285D-03 0.557D-03 0.198D-02-0.190D-02-0.317D-01 0.291D-02
 Coeff:      0.132D+00 0.897D+00
 Gap=     0.198 Goal=   None    Shift=    0.000
 Gap=     0.198 Goal=   None    Shift=    0.000
 RMSDP=9.91D-09 MaxDP=1.03D-07 DE=-1.90D-11 OVMax= 2.45D-07

 SCF Done:  E(UB3LYP) =  -155.996095135     A.U. after   14 cycles
            NFock= 14  Conv=0.99D-08     -V/T= 2.0117
 <Sx>= 0.0000 <Sy>= 0.0000 <Sz>= 0.0000 <S**2>= 0.0000 S= 0.0000
 <L.S>= 0.000000000000E+00
 KE= 1.541963632359D+02 PE=-5.671379428276D+02 EE= 1.535357335548D+02
 Annihilation of the first spin contaminant:
 S**2 before annihilation     0.0000,   after     0.0000
 Leave Link  502 at Mon Jan  8 21:36:48 2024, MaxMem=   104857600 cpu:              56.2 elap:              56.4
 (Enter /home/kangmg/compchem/gaussian/g16/l601.exe)
 Copying SCF densities to generalized density rwf, IOpCl= 1 IROHF=0.

 **********************************************************************

            Population analysis using the SCF density.

 **********************************************************************

 Alpha  occ. eigenvalues --  -10.19757 -10.19730 -10.18679 -10.18678  -0.79228
 Alpha  occ. eigenvalues --   -0.71985  -0.61485  -0.52766  -0.48221  -0.43189
 Alpha  occ. eigenvalues --   -0.41628  -0.36479  -0.34691  -0.30702  -0.22768
 Alpha virt. eigenvalues --   -0.02932   0.07927   0.10572   0.11853   0.15050
 Alpha virt. eigenvalues --    0.18054   0.18832   0.20839   0.30390   0.33367
 Alpha virt. eigenvalues --    0.40949   0.47460   0.53313   0.53536   0.57474
 Alpha virt. eigenvalues --    0.59210   0.63155   0.64385   0.66863   0.67890
 Alpha virt. eigenvalues --    0.68606   0.83465   0.85099   0.87138   0.89103
 Alpha virt. eigenvalues --    0.92755   0.94686   0.96119   1.00190   1.07389
 Alpha virt. eigenvalues --    1.15718   1.23657   1.27169   1.47727   1.50746
 Alpha virt. eigenvalues --    1.51000   1.65600   1.75324   1.76968   1.88454
 Alpha virt. eigenvalues --    1.94219   1.99423   2.09281   2.12390   2.20751
 Alpha virt. eigenvalues --    2.22426   2.29075   2.48168   2.51344   2.54497
 Alpha virt. eigenvalues --    2.63150   2.83334   3.01781   4.05621   4.13377
 Alpha virt. eigenvalues --    4.20589   4.45610
  Beta  occ. eigenvalues --  -10.19757 -10.19730 -10.18679 -10.18678  -0.79228
  Beta  occ. eigenvalues --   -0.71985  -0.61485  -0.52766  -0.48221  -0.43189
  Beta  occ. eigenvalues --   -0.41628  -0.36479  -0.34691  -0.30702  -0.22768
  Beta virt. eigenvalues --   -0.02932   0.07927   0.10572   0.11853   0.15050
  Beta virt. eigenvalues --    0.18054   0.18832   0.20839   0.30390   0.33367
  Beta virt. eigenvalues --    0.40949   0.47460   0.53313   0.53536   0.57474
  Beta virt. eigenvalues --    0.59210   0.63155   0.64385   0.66863   0.67890
  Beta virt. eigenvalues --    0.68606   0.83465   0.85099   0.87138   0.89103
  Beta virt. eigenvalues --    0.92755   0.94686   0.96119   1.00190   1.07389
  Beta virt. eigenvalues --    1.15718   1.23657   1.27169   1.47727   1.50746
  Beta virt. eigenvalues --    1.51000   1.65600   1.75324   1.76968   1.88454
  Beta virt. eigenvalues --    1.94219   1.99423   2.09281   2.12390   2.20751
  Beta virt. eigenvalues --    2.22426   2.29075   2.48168   2.51344   2.54497
  Beta virt. eigenvalues --    2.63150   2.83334   3.01781   4.05621   4.13377
  Beta virt. eigenvalues --    4.20589   4.45610
          Condensed to atoms (all electrons):
               1          2          3          4          5          6
     1  C    4.783208   0.650942  -0.031817  -0.022580   0.362042  -0.038464
     2  C    0.650942   5.048428   0.365616   0.363588  -0.051903  -0.017086
     3  H   -0.031817   0.365616   0.562628  -0.042141   0.005478   0.005064
     4  H   -0.022580   0.363588  -0.042141   0.559995  -0.007076   0.000100
     5  H    0.362042  -0.051903   0.005478  -0.007076   0.603315   0.005133
     6  C   -0.038464  -0.017086   0.005064   0.000100   0.005133   5.048427
     7  C    0.433383  -0.038464  -0.010693   0.004173  -0.043463   0.650941
     8  H   -0.043464   0.005133   0.000052  -0.000147  -0.004213  -0.051903
     9  H   -0.010691   0.005062   0.002731  -0.000101   0.000052   0.365617
    10  H    0.004173   0.000100  -0.000101   0.000001  -0.000147   0.363587
               7          8          9         10
     1  C    0.433383  -0.043464  -0.010691   0.004173
     2  C   -0.038464   0.005133   0.005062   0.000100
     3  H   -0.010693   0.000052   0.002731  -0.000101
     4  H    0.004173  -0.000147  -0.000101   0.000001
     5  H   -0.043463  -0.004213   0.000052  -0.000147
     6  C    0.650941  -0.051903   0.365617   0.363587
     7  C    4.783216   0.362040  -0.031817  -0.022579
     8  H    0.362040   0.603322   0.005478  -0.007078
     9  H   -0.031817   0.005478   0.562626  -0.042141
    10  H   -0.022579  -0.007078  -0.042141   0.560001
          Atomic-Atomic Spin Densities.
               1          2          3          4          5          6
     1  C    0.000000  -0.000000   0.000000   0.000000   0.000000  -0.000000
     2  C   -0.000000  -0.000000  -0.000000   0.000000  -0.000000  -0.000000
     3  H    0.000000  -0.000000   0.000000   0.000000   0.000000   0.000000
     4  H    0.000000   0.000000   0.000000  -0.000000   0.000000   0.000000
     5  H    0.000000  -0.000000   0.000000   0.000000  -0.000000  -0.000000
     6  C   -0.000000  -0.000000   0.000000   0.000000  -0.000000   0.000000
     7  C    0.000000   0.000000  -0.000000  -0.000000   0.000000   0.000000
     8  H   -0.000000   0.000000   0.000000   0.000000  -0.000000   0.000000
     9  H    0.000000  -0.000000   0.000000   0.000000  -0.000000   0.000000
    10  H    0.000000  -0.000000  -0.000000   0.000000  -0.000000  -0.000000
               7          8          9         10
     1  C    0.000000  -0.000000   0.000000   0.000000
     2  C    0.000000   0.000000  -0.000000  -0.000000
     3  H   -0.000000   0.000000   0.000000  -0.000000
     4  H   -0.000000   0.000000   0.000000   0.000000
     5  H    0.000000  -0.000000  -0.000000  -0.000000
     6  C    0.000000   0.000000   0.000000  -0.000000
     7  C   -0.000000  -0.000000  -0.000000  -0.000000
     8  H   -0.000000   0.000000  -0.000000  -0.000000
     9  H   -0.000000  -0.000000  -0.000000  -0.000000
    10  H   -0.000000  -0.000000  -0.000000   0.000000
 Mulliken charges and spin densities:
               1          2
     1  C   -0.086732   0.000000
     2  C   -0.331417  -0.000000
     3  H    0.143185   0.000000
     4  H    0.144187  -0.000000
     5  H    0.130783  -0.000000
     6  C   -0.331417   0.000000
     7  C   -0.086737  -0.000000
     8  H    0.130779   0.000000
     9  H    0.143185  -0.000000
    10  H    0.144184   0.000000
 Sum of Mulliken charges =  -0.00000  -0.00000
 Mulliken charges and spin densities with hydrogens summed into heavy atoms:
               1          2
     1  C    0.044051   0.000000
     2  C   -0.044045  -0.000000
     6  C   -0.044048   0.000000
     7  C    0.044042  -0.000000
 Electronic spatial extent (au):  <R**2>=            312.3843
 Charge=             -0.0000 electrons
 Dipole moment (field-independent basis, Debye):
    X=             -0.0157    Y=              0.0523    Z=              0.0724  Tot=              0.0907
 Quadrupole moment (field-independent basis, Debye-Ang):
   XX=            -27.7132   YY=            -22.7402   ZZ=            -22.7535
   XY=             -0.4713   XZ=             -0.7787   YZ=              0.0219
 Traceless Quadrupole moment (field-independent basis, Debye-Ang):
   XX=             -3.3109   YY=              1.6621   ZZ=              1.6488
   XY=             -0.4713   XZ=             -0.7787   YZ=              0.0219
 Octapole moment (field-independent basis, Debye-Ang**2):
  XXX=             -0.1812  YYY=              0.8755  ZZZ=              0.4346  XYY=              1.0412
  XXY=             -0.1389  XXZ=              0.5336  XZZ=             -1.2081  YZZ=              0.4204
  YYZ=              0.6321  XYZ=              0.3200
 Hexadecapole moment (field-independent basis, Debye-Ang**3):
 XXXX=            -35.9611 YYYY=           -208.0268 ZZZZ=           -162.7482 XXXY=             14.3388
 XXXZ=             -2.7456 YYYX=             11.1486 YYYZ=             39.0259 ZZZX=             -3.7660
 ZZZY=             42.7401 XXYY=            -46.4285 XXZZ=            -36.7402 YYZZ=            -58.4499
 XXYZ=             17.8531 YYXZ=             -0.9873 ZZXY=              4.4595
 N-N= 1.034097509017D+02 E-N=-5.671379422006D+02  KE= 1.541963632359D+02
                          Isotropic Fermi Contact Couplings
        Atom                 a.u.       MegaHertz       Gauss      10(-4) cm-1
     1  C(13)              0.00000       0.00001       0.00000       0.00000
     2  C(13)              0.00000       0.00001       0.00000       0.00000
     3  H(1)               0.00000       0.00004       0.00001       0.00001
     4  H(1)              -0.00000      -0.00004      -0.00001      -0.00001
     5  H(1)              -0.00000      -0.00004      -0.00002      -0.00001
     6  C(13)             -0.00000      -0.00001      -0.00000      -0.00000
     7  C(13)             -0.00000      -0.00001      -0.00000      -0.00000
     8  H(1)               0.00000       0.00004       0.00002       0.00001
     9  H(1)              -0.00000      -0.00004      -0.00001      -0.00001
    10  H(1)               0.00000       0.00004       0.00001       0.00001
 --------------------------------------------------------
       Center         ----  Spin Dipole Couplings  ----
                      3XX-RR        3YY-RR        3ZZ-RR
 --------------------------------------------------------
     1   Atom        0.000000     -0.000000      0.000000
     2   Atom       -0.000000      0.000000      0.000000
     3   Atom        0.000000      0.000000     -0.000000
     4   Atom       -0.000000      0.000000     -0.000000
     5   Atom       -0.000000     -0.000000      0.000000
     6   Atom        0.000000     -0.000000     -0.000000
     7   Atom       -0.000000      0.000000      0.000000
     8   Atom        0.000000     -0.000000      0.000000
     9   Atom       -0.000000      0.000000     -0.000000
    10   Atom        0.000000     -0.000000     -0.000000
 --------------------------------------------------------
                        XY            XZ            YZ
 --------------------------------------------------------
     1   Atom        0.000000      0.000000      0.000000
     2   Atom       -0.000000     -0.000000     -0.000000
     3   Atom       -0.000000      0.000000     -0.000000
     4   Atom       -0.000000     -0.000000     -0.000000
     5   Atom        0.000000     -0.000000      0.000000
     6   Atom        0.000000     -0.000000      0.000000
     7   Atom        0.000000      0.000000     -0.000000
     8   Atom       -0.000000     -0.000000     -0.000000
     9   Atom       -0.000000     -0.000000      0.000000
    10   Atom       -0.000000      0.000000      0.000000
 --------------------------------------------------------


 ---------------------------------------------------------------------------------
              Anisotropic Spin Dipole Couplings in Principal Axis System
 ---------------------------------------------------------------------------------

       Atom             a.u.   MegaHertz   Gauss  10(-4) cm-1        Axes

              Baa    -0.0000    -0.000    -0.000    -0.000 -0.2649  0.9628  0.0526
     1 C(13)  Bbb    -0.0000    -0.000    -0.000    -0.000 -0.3061 -0.1357  0.9423
              Bcc     0.0000     0.000     0.000     0.000  0.9144  0.2335  0.3307
 
              Baa    -0.0000    -0.000    -0.000    -0.000  0.9408  0.2076  0.2680
     2 C(13)  Bbb     0.0000     0.000     0.000     0.000 -0.3240  0.3182  0.8909
              Bcc     0.0000     0.000     0.000     0.000 -0.0997  0.9250 -0.3667
 
              Baa    -0.0000    -0.000    -0.000    -0.000 -0.2837  0.0934  0.9544
     3 H(1)   Bbb     0.0000     0.000     0.000     0.000  0.9453  0.1945  0.2619
              Bcc     0.0000     0.000     0.000     0.000 -0.1612  0.9764 -0.1435
 
              Baa    -0.0000    -0.000    -0.000    -0.000  0.9238  0.1519  0.3515
     4 H(1)   Bbb    -0.0000    -0.000    -0.000    -0.000 -0.3802  0.2560  0.8888
              Bcc     0.0000     0.000     0.000     0.000 -0.0450  0.9547 -0.2943
 
              Baa    -0.0000    -0.000    -0.000    -0.000 -0.1856  0.9723 -0.1420
     5 H(1)   Bbb    -0.0000    -0.000    -0.000    -0.000  0.9141  0.2239  0.3381
              Bcc     0.0000     0.000     0.000     0.000 -0.3605  0.0671  0.9303
 
              Baa    -0.0000    -0.000    -0.000    -0.000  0.0089 -0.6252  0.7804
     6 C(13)  Bbb    -0.0000    -0.000    -0.000    -0.000 -0.0055  0.7804  0.6252
              Bcc     0.0000     0.000     0.000     0.000  0.9999  0.0099 -0.0035
 
              Baa    -0.0000    -0.000    -0.000    -0.000  0.9978 -0.0423 -0.0513
     7 C(13)  Bbb     0.0000     0.000     0.000     0.000  0.0526  0.9745  0.2183
              Bcc     0.0000     0.000     0.000     0.000  0.0407 -0.2205  0.9745
 
              Baa    -0.0000    -0.000    -0.000    -0.000  0.0673  0.9076  0.4145
     8 H(1)   Bbb     0.0000     0.000     0.000     0.000  0.9976 -0.0537 -0.0445
              Bcc     0.0000     0.000     0.000     0.000  0.0181 -0.4164  0.9090
 
              Baa    -0.0000    -0.000    -0.000    -0.000 -0.0054 -0.4255  0.9049
     9 H(1)   Bbb    -0.0000    -0.000    -0.000    -0.000  0.9999  0.0116  0.0115
              Bcc     0.0000     0.000     0.000     0.000 -0.0154  0.9049  0.4254
 
              Baa    -0.0000    -0.000    -0.000    -0.000 -0.0674 -0.5617  0.8246
    10 H(1)   Bbb     0.0000     0.000     0.000     0.000  0.0626  0.8225  0.5653
              Bcc     0.0000     0.000     0.000     0.000  0.9958 -0.0897  0.0203
 

 ---------------------------------------------------------------------------------

 No NMR shielding tensors so no spin-rotation constants.
 Leave Link  601 at Mon Jan  8 21:36:48 2024, MaxMem=   104857600 cpu:               0.2 elap:               0.2
 (Enter /home/kangmg/compchem/gaussian/g16/l608.exe)
 IExCor=  402 DFT=T Ex+Corr=B3LYP ExCW=0 ScaHFX=  0.200000
 ScaDFX=  0.800000  0.720000  1.000000  0.810000 ScalE2=  1.000000  1.000000
 IRadAn=      5 IRanWt=     -1 IRanGd=            0 ICorTp=0 IEmpDi=  4
 A total of   1 models will be applied.

 Results using SCF density:
 FoFJK:  IHMeth= 0 ICntrl=     500 DoSepK=F KAlg= 0 I1Cent=           0 FoldK=F
 IRaf=         0 NMat=       2 IRICut=       1 DoRegI=T DoRafI=F ISym2E= 0 IDoP0=0 IntGTp=1.
 FoFCou: FMM=F IPFlag=           0 FMFlag=           0 FMFlg1=           0
         NFxFlg=           0 DoJE=F BraDBF=F KetDBF=F FulRan=T
         wScrn=  0.000000 ICntrl=       500 IOpCl=  1 I1Cent=           0 NGrid=           0
         NMat0=    2 NMatS0=      2 NMatT0=    0 NMatD0=    2 NMtDS0=    0 NMtDT0=    0
 Symmetry not used in FoFCou.
 ET=  154.196363 EV= -567.137942 EJ=  177.359661 EK=  -22.726994 ENuc=  103.409751

 A=0 I=   1 IExCor=  402 IRadAn=       5 ScaHFX=  0.200000
            ScaDFX=  0.800000  0.720000  1.000000  0.810000
 HFx=  0.000000  0.000000  1.000000  0.000000  0.000000
 DFx=  0.000000  0.000000  1.000000  0.000000  0.000000
 DFc=  0.000000  0.000000  1.000000  0.000000  0.000000
            ENTVJ= -132.172167 Ex=  -22.580226 Ec=   -1.243702 ETotM2e= -328.8103569509  ETot= -155.9960951352
 Leave Link  608 at Mon Jan  8 21:36:51 2024, MaxMem=   104857600 cpu:               2.3 elap:               2.3
 (Enter /home/kangmg/compchem/gaussian/g16/l9999.exe)

 Test job not archived.
 1\1\GINC-KANGMG-22\SP\UB3LYP\6-31G(d)\C4H6\KANGMG\08-Jan-2024\0\\#p b3
 lyp/6-31G* em=gd3bj ExtraLinks=L608 nosymm guess=read\\opted geometry\
 \0,1\C,0,-0.09722328,-0.28111625,0.88395053\C,0,0.27909315,-1.53208498
 ,0.51290462\H,0,0.66739952,-1.75442717,-0.48527898\H,0,0.22740426,-2.3
 7403544,1.20675376\H,0,-0.44926582,-0.12175063,1.91034382\C,0,-0.09722
 328,0.92749429,-1.34854937\C,0,-0.09722328,0.92749429,0.00946785\H,0,-
 0.08275574,1.89044418,0.53420702\H,0,-0.14095077,0.00434317,-1.9337549
 \H,0,-0.07208301,1.85787112,-1.92017139\\Version=ES64L-G16RevA.03\HF=-
 155.9960951\S2=0.\S2-1=0.\S2A=0.\RMSD=9.914e-09\Dipole=-0.0061875,0.02
 05903,0.0284813\Quadrupole=-2.4615635,1.2357337,1.2258298,-0.3504212,-
 0.5789592,0.0162641\PG=C01 [X(C4H6)]\\@


 IF OTHER PEOPLE ARE GOING TO TALK, CONVERSATION IS SIMPLY IMPOSSIBLE.

                                               -- WHISTLER'S PRINCIPLE
 Job cpu time:       0 days  0 hours  0 minutes 59.8 seconds.
 Elapsed time:       0 days  0 hours  0 minutes 59.9 seconds.
 File lengths (MBytes):  RWF=     10 Int=      0 D2E=      0 Chk=      1 Scr=      1
 Normal termination of Gaussian 16 at Mon Jan  8 21:36:51 2024.
