opted geometry                                                          
SP        UB3LYP                                                      6-31G(d)            
Number of atoms                            I                5
Info1-9                                    I   N=           9
          14          14           0           0           0         111
           1          18        -502
Full Title                                 C   N=           2
opted geometry          
Route                                      C   N=           4
#p b3lyp/6-31G* em=gd3bj ExtraLinks=L608 nosymm 
Charge                                     I                0
Multiplicity                               I                2
Number of electrons                        I               15
Number of alpha electrons                  I                8
Number of beta electrons                   I                7
Number of basis functions                  I               36
Number of independent functions            I               36
Number of point charges in /Mol/           I                0
Number of translation vectors              I                0
Atomic numbers                             I   N=           5
           6           6           1           1           1
Nuclear charges                            R   N=           5
  6.00000000E+00  6.00000000E+00  1.00000000E+00  1.00000000E+00  1.00000000E+00
Current cartesian coordinates              R   N=          15
 -1.83725372E-01  1.75271019E+00 -2.54838897E+00 -1.83725372E-01  1.75271019E+00
  1.78916435E-02 -1.56385684E-01  3.57242175E+00  1.00950496E+00 -2.66358352E-01
  8.20740181E-03 -3.65426715E+00 -1.36217147E-01  3.51086759E+00 -3.62859804E+00
Number of symbols in /Mol/                 I                0
Force Field                                I                0
Atom Types                                 C   N=           5
                                                            
Int Atom Types                             I   N=           5
           0           0           0           0           0
MM charges                                 R   N=           5
  0.00000000E+00  0.00000000E+00  0.00000000E+00  0.00000000E+00  0.00000000E+00
Integer atomic weights                     I   N=           5
          12          12           1           1           1
Real atomic weights                        R   N=           5
  1.20000000E+01  1.20000000E+01  1.00782504E+00  1.00782504E+00  1.00782504E+00
Atom fragment info                         I   N=           5
           0           0           0           0           0
Atom residue num                           I   N=           5
           0           0           0           0           0
Nuclear spins                              I   N=           5
           0           0           1           1           1
Nuclear ZEff                               R   N=           5
 -3.60000000E+00 -3.60000000E+00 -1.00000000E+00 -1.00000000E+00 -1.00000000E+00
Nuclear ZNuc                               R   N=           5
  6.00000000E+00  6.00000000E+00  1.00000000E+00  1.00000000E+00  1.00000000E+00
Nuclear QMom                               R   N=           5
  0.00000000E+00  0.00000000E+00  0.00000000E+00  0.00000000E+00  0.00000000E+00
Nuclear GFac                               R   N=           5
  0.00000000E+00  0.00000000E+00  2.79284600E+00  2.79284600E+00  2.79284600E+00
MicOpt                                     I   N=           5
          -1          -1          -1          -1          -1
Number of residues                         I                0
Number of secondary structures             I                0
Number of contracted shells                I               14
Number of primitive shells                 I               34
Pure/Cartesian d shells                    I                1
Pure/Cartesian f shells                    I                0
Highest angular momentum                   I                2
Largest degree of contraction              I                6
Shell types                                I   N=          14
           0          -1          -1           2           0          -1
          -1           2           0           0           0           0
           0           0
Number of primitives per shell             I   N=          14
           6           3           1           1           6           3
           1           1           3           1           3           1
           3           1
Shell to atom map                          I   N=          14
           1           1           1           1           2           2
           2           2           3           3           4           4
           5           5
Primitive exponents                        R   N=          34
  3.04752488E+03  4.57369518E+02  1.03948685E+02  2.92101553E+01  9.28666296E+00
  3.16392696E+00  7.86827235E+00  1.88128854E+00  5.44249258E-01  1.68714478E-01
  8.00000000E-01  3.04752488E+03  4.57369518E+02  1.03948685E+02  2.92101553E+01
  9.28666296E+00  3.16392696E+00  7.86827235E+00  1.88128854E+00  5.44249258E-01
  1.68714478E-01  8.00000000E-01  1.87311370E+01  2.82539436E+00  6.40121692E-01
  1.61277759E-01  1.87311370E+01  2.82539436E+00  6.40121692E-01  1.61277759E-01
  1.87311370E+01  2.82539436E+00  6.40121692E-01  1.61277759E-01
Contraction coefficients                   R   N=          34
  1.83473713E-03  1.40373228E-02  6.88426223E-02  2.32184443E-01  4.67941348E-01
  3.62311985E-01 -1.19332420E-01 -1.60854152E-01  1.14345644E+00  1.00000000E+00
  1.00000000E+00  1.83473713E-03  1.40373228E-02  6.88426223E-02  2.32184443E-01
  4.67941348E-01  3.62311985E-01 -1.19332420E-01 -1.60854152E-01  1.14345644E+00
  1.00000000E+00  1.00000000E+00  3.34946043E-02  2.34726953E-01  8.13757326E-01
  1.00000000E+00  3.34946043E-02  2.34726953E-01  8.13757326E-01  1.00000000E+00
  3.34946043E-02  2.34726953E-01  8.13757326E-01  1.00000000E+00
P(S=P) Contraction coefficients            R   N=          34
  0.00000000E+00  0.00000000E+00  0.00000000E+00  0.00000000E+00  0.00000000E+00
  0.00000000E+00  6.89990666E-02  3.16423961E-01  7.44308291E-01  1.00000000E+00
  0.00000000E+00  0.00000000E+00  0.00000000E+00  0.00000000E+00  0.00000000E+00
  0.00000000E+00  0.00000000E+00  6.89990666E-02  3.16423961E-01  7.44308291E-01
  1.00000000E+00  0.00000000E+00  0.00000000E+00  0.00000000E+00  0.00000000E+00
  0.00000000E+00  0.00000000E+00  0.00000000E+00  0.00000000E+00  0.00000000E+00
  0.00000000E+00  0.00000000E+00  0.00000000E+00  0.00000000E+00
Coordinates of each shell                  R   N=          42
 -1.83725372E-01  1.75271019E+00 -2.54838897E+00 -1.83725372E-01  1.75271019E+00
 -2.54838897E+00 -1.83725372E-01  1.75271019E+00 -2.54838897E+00 -1.83725372E-01
  1.75271019E+00 -2.54838897E+00 -1.83725372E-01  1.75271019E+00  1.78916435E-02
 -1.83725372E-01  1.75271019E+00  1.78916435E-02 -1.83725372E-01  1.75271019E+00
  1.78916435E-02 -1.83725372E-01  1.75271019E+00  1.78916435E-02 -1.56385684E-01
  3.57242175E+00  1.00950496E+00 -1.56385684E-01  3.57242175E+00  1.00950496E+00
 -2.66358352E-01  8.20740181E-03 -3.65426715E+00 -2.66358352E-01  8.20740181E-03
 -3.65426715E+00 -1.36217147E-01  3.51086759E+00 -3.62859804E+00 -1.36217147E-01
  3.51086759E+00 -3.62859804E+00
Num ILSW                                   I              100
ILSW                                       I   N=         100
           1           1           0           0           2           0
           0           0           0           0         402          -1
           5           0           0           0           0           0
           0           0           0           0           0           0
           1           1           0           0           0           0
           0           0      100000           0          -1           0
           0           0           0           0           0           0
           0           0           0           1           0           0
           0 -2000000000           1           0           0           0
           0           0         141          52           0           0
           0           0           5           0           0           0
           0           0           0           5           0           1
           0           0           0           0           0           0
           0           0           0           0           0           0
           0           0           0           0           0           0
           0           0           0           0           0           0
           0           0           0           0
Num RLSW                                   I               52
RLSW                                       R   N=          52
  8.00000000E-01  7.20000000E-01  1.00000000E+00  8.10000000E-01  2.00000000E-01
  0.00000000E+00  0.00000000E+00  1.00000000E+00  0.00000000E+00  0.00000000E+00
  0.00000000E+00  0.00000000E+00  1.00000000E+00  0.00000000E+00  0.00000000E+00
  0.00000000E+00  0.00000000E+00  1.00000000E+00  0.00000000E+00  0.00000000E+00
  0.00000000E+00  0.00000000E+00  1.00000000E+00  0.00000000E+00  0.00000000E+00
  0.00000000E+00  0.00000000E+00  1.00000000E+00  0.00000000E+00  0.00000000E+00
  0.00000000E+00  0.00000000E+00  1.00000000E+00  0.00000000E+00  0.00000000E+00
  0.00000000E+00  0.00000000E+00  0.00000000E+00  1.00000000E+00  1.00000000E+00
  0.00000000E+00  1.00000000E+00  0.00000000E+00  0.00000000E+00  0.00000000E+00
  0.00000000E+00  0.00000000E+00  0.00000000E+00  0.00000000E+00  0.00000000E+00
  0.00000000E+00  0.00000000E+00
MxBond                                     I                3
NBond                                      I   N=           5
           3           2           1           1           1
IBond                                      I   N=          15
           2           4           5           1           3           0
           2           0           0           1           0           0
           1           0           0
RBond                                      R   N=          15
  2.00000000E+00  1.00000000E+00  1.00000000E+00  2.00000000E+00  1.00000000E+00
  0.00000000E+00  1.00000000E+00  0.00000000E+00  0.00000000E+00  1.00000000E+00
  0.00000000E+00  0.00000000E+00  1.00000000E+00  0.00000000E+00  0.00000000E+00
Virial Ratio                               R      2.011507137439336E+00
SCF Energy                                 R     -7.789648554087894E+01
Total Energy                               R     -7.789648554087894E+01
S**2                                       R      7.658572063237603E-01
S**2 after annihilation                    R      7.500529490282539E-01
RMS Density                                R      6.525163048155025E-09
Job Status                                 I                1
Nuclear derivative order                   I                0
External E-field                           R   N=          35
  0.00000000E+00  0.00000000E+00  0.00000000E+00  0.00000000E+00  0.00000000E+00
  0.00000000E+00  0.00000000E+00  0.00000000E+00  0.00000000E+00  0.00000000E+00
  0.00000000E+00  0.00000000E+00  0.00000000E+00  0.00000000E+00  0.00000000E+00
  0.00000000E+00  0.00000000E+00  0.00000000E+00  0.00000000E+00  0.00000000E+00
  0.00000000E+00  0.00000000E+00  0.00000000E+00  0.00000000E+00  0.00000000E+00
  0.00000000E+00  0.00000000E+00  0.00000000E+00  0.00000000E+00  0.00000000E+00
  0.00000000E+00  0.00000000E+00  0.00000000E+00  0.00000000E+00  0.00000000E+00
IOpCl                                      I                1
IROHF                                      I                0
Alpha Orbital Energies                     R   N=          36
 -1.02227909E+01 -1.01963093E+01 -7.56153098E-01 -5.72142783E-01 -4.56735401E-01
 -4.06394602E-01 -2.73025846E-01 -2.66027552E-01  5.35061944E-03  1.15747122E-01
  1.40444484E-01  2.04681101E-01  3.18499409E-01  4.88621584E-01  5.44041446E-01
  5.58933710E-01  6.03004587E-01  6.27964889E-01  6.59659089E-01  8.24897076E-01
  8.51146127E-01  9.20751140E-01  9.44327217E-01  1.09384732E+00  1.44444314E+00
  1.54336252E+00  1.73837043E+00  1.81416319E+00  1.90708244E+00  2.05065774E+00
  2.19942106E+00  2.34846191E+00  2.55663032E+00  2.66898489E+00  4.02081057E+00
  4.20705127E+00
Beta Orbital Energies                      R   N=          36
 -1.02065655E+01 -1.01978594E+01 -7.40062252E-01 -5.52199492E-01 -4.40855585E-01
 -3.93077281E-01 -2.63838574E-01 -9.23742120E-02  2.01865470E-02  1.23909239E-01
  1.45559433E-01  2.13157492E-01  3.36213821E-01  5.00421431E-01  5.48454272E-01
  5.94247552E-01  6.36065064E-01  6.41567604E-01  6.70604245E-01  8.33348052E-01
  8.66488647E-01  9.25799972E-01  9.64500240E-01  1.10598608E+00  1.45830839E+00
  1.56717912E+00  1.80050384E+00  1.84534323E+00  1.91860367E+00  2.07582551E+00
  2.21467890E+00  2.36529366E+00  2.58309990E+00  2.69239448E+00  4.04727320E+00
  4.21947731E+00
Alpha MO coefficients                      R   N=        1296
  1.37353567E-02  1.61291392E-04 -2.79332236E-06 -5.68635867E-05 -3.81804923E-04
  4.53808301E-03  2.44677158E-05  8.52050869E-04  2.18987120E-03 -2.95020836E-04
 -3.25038437E-04 -3.90366592E-04 -1.08493096E-06 -8.91435797E-07  1.65533597E-05
  9.92478897E-01  4.96977918E-02 -2.73234716E-06  2.41026769E-04 -7.73726929E-05
 -1.17242219E-02 -2.54885514E-05 -1.63736787E-03  1.71027784E-03 -1.01366739E-02
 -9.75325673E-03 -9.72045200E-03  1.52875066E-05 -6.19859009E-06 -1.20987573E-04
 -2.35911191E-04  2.55475950E-03 -4.28224665E-05  5.06573610E-04 -1.71112771E-04
 -2.31409808E-04  9.92685530E-01  4.87461575E-02 -8.37394337E-07  2.47164114E-05
 -3.92674250E-06 -1.27952418E-02  1.91228588E-05 -1.00541334E-04 -8.40047338E-04
 -9.69118846E-03 -9.30221334E-03 -9.02321420E-03  1.60640341E-05  5.37825039E-06
  5.28799851E-06 -1.41737678E-02 -1.19272055E-03 -6.87258116E-07  5.14128713E-06
  4.29034738E-04  4.41406216E-03 -3.74508187E-06  9.39568435E-05 -1.86113220E-03
  1.86222719E-05 -6.17597716E-05 -2.23170738E-04 -3.90869065E-06  2.71888801E-06
  1.06282478E-05 -8.33851933E-05 -5.54596775E-05 -3.56565990E-04  2.14266603E-03
 -3.34653876E-04  2.22888862E-03 -1.63334374E-01  3.18555607E-01 -3.75441368E-04
  9.78850307E-03  9.81227580E-02  2.32601233E-01 -2.42787348E-05  7.07074571E-03
  2.41168720E-04 -1.85055031E-02  7.94900134E-04  8.74838555E-03  8.05544658E-04
  1.84905086E-04  1.16509446E-03 -1.55627892E-01  3.13073656E-01  1.98180207E-04
  3.31287450E-02 -1.19367775E-01  2.41770537E-01  3.09053095E-05  1.02120277E-02
 -1.39669007E-02 -1.70865311E-02 -1.21094711E-03  5.95742325E-03  4.64818372E-04
 -8.25643329E-05  1.12158628E-04  9.30888707E-02  2.04632451E-02  8.56118911E-02
  2.04428224E-02  9.36732450E-02  1.91803297E-02  1.14089031E-01 -2.30423977E-01
  2.43059403E-03  2.97769433E-02  2.08014653E-01 -2.35038898E-01  1.01856396E-03
  1.30311381E-02  7.23728130E-02  1.15823730E-02 -1.53110121E-02  8.43053504E-03
 -1.16491206E-03 -2.41068623E-04  1.84021962E-03 -1.28979480E-01  2.69324373E-01
  1.57669310E-03  1.04151268E-01  1.20946933E-01  2.66402641E-01  2.11340323E-04
  2.62054093E-02  4.40885743E-02 -1.22177083E-02  1.01876099E-02 -1.13237641E-02
  5.38396076E-04 -9.55540334E-05  5.10749139E-03  1.87048195E-01  9.51504360E-02
 -1.63563627E-01 -7.59857493E-02 -1.45647814E-01 -7.26156115E-02  3.97204963E-04
 -1.00392804E-03  1.07094813E-02  3.44908080E-01 -2.01246376E-01 -1.48425683E-02
  3.84142076E-03  1.27495934E-01 -7.49959583E-02 -3.93256948E-04  1.09243203E-02
 -3.80401301E-03  1.10821324E-04 -3.97456027E-04 -1.14011066E-02  3.44051544E-02
 -7.89936643E-02  6.14445813E-03  2.49551033E-01  1.55420248E-01 -6.98206873E-02
  2.60830191E-03  9.39268685E-02  1.95374450E-02  1.25550343E-03  1.22421123E-02
 -1.72623899E-03  1.13630368E-04 -2.04291641E-04 -3.12172518E-03  1.36014285E-01
  1.14314376E-01 -1.04219749E-01 -7.56905866E-02  2.45247442E-01  1.89278443E-01
  1.85521844E-02 -4.08308007E-02 -1.29298969E-02 -2.49719478E-01 -3.17637239E-01
 -3.60130981E-02 -5.13640636E-03 -9.40066109E-02 -1.19938235E-01  1.33403195E-03
  1.33354690E-02 -2.54764756E-03  7.41556188E-04  5.15566172E-04  1.54034366E-02
 -1.20339517E-02  2.19809577E-02 -3.52782264E-03  5.08349178E-02  3.66117553E-01
  8.23845613E-02 -2.18822174E-03 -2.50047653E-03  1.23762563E-01 -7.90439585E-04
  1.38134844E-02 -9.08578481E-03  2.85703836E-04  4.96740616E-04  1.67452821E-02
  1.72432497E-01  1.59487710E-01  2.32768568E-01  2.03169792E-01 -5.16691398E-02
 -4.17162035E-02  1.82499349E-03 -4.67949766E-03  3.77650481E-01 -2.01078613E-03
 -1.57467035E-02  7.09160709E-04  2.69469565E-01 -5.58158525E-03 -4.75287008E-03
  7.63435009E-05  2.57551088E-04  3.08099971E-04  8.25461925E-04  1.62673195E-02
 -3.12515729E-03 -7.58599436E-03  1.56217790E-02  4.31669522E-01 -5.52556776E-02
  3.02174385E-02  3.66856560E-02  2.90159383E-01 -3.57636751E-02  2.27907808E-02
 -2.10977188E-04 -8.62841840E-04 -1.08134463E-03  1.97808092E-03 -1.60070059E-02
 -5.55755266E-04 -1.28878002E-02 -1.52910687E-02 -8.97800587E-03 -9.85752542E-03
  1.38114116E-02  1.88116751E-02 -2.26479880E-02  5.63650951E-02  3.27326171E-02
 -1.32337434E-01  1.11888629E-01  1.15743842E-02  2.53179782E-02 -4.79225689E-02
  2.06845045E-02 -1.23044402E-03 -1.97648670E-03 -3.18653790E-03  2.43019347E-04
  2.55921745E-03  2.96490439E-02  7.22396132E-02 -1.50572263E-01  5.59694704E-02
  4.59487827E-01 -2.55610216E-01 -3.47622493E-01  3.83599379E-02  2.98928679E-01
 -2.08755297E-01  9.41831203E-04  9.52125712E-03  1.05910498E-02  1.63292501E-04
 -1.17590929E-03  1.26705295E-02  1.42455729E-01  1.74623956E-01  1.08031154E-01
  1.28723775E-01 -1.51899193E-01 -2.06144737E-01 -1.54643346E-03  3.17353550E-03
  4.35580427E-01 -1.68048983E-02 -2.26210481E-03  9.05300333E-03  6.21578458E-01
 -2.50742663E-02 -6.26347172E-03 -1.34102272E-04 -8.45025966E-05 -1.45205833E-04
  6.63694762E-04 -2.41375349E-02  4.02528775E-04  1.35704517E-03 -2.82377934E-03
 -4.28674989E-01  9.07709915E-03 -1.38322311E-03 -7.02997534E-03 -5.74767541E-01
  1.18356101E-02 -4.77235528E-03  1.15472840E-04  8.93441871E-05  1.23710830E-04
 -2.24340288E-03 -2.48297195E-02  1.13843147E-03  3.49784854E-03  1.03115768E-02
 -3.63353236E-03 -1.11109796E-02 -4.69682574E-04 -7.72945482E-04  7.61454030E-02
 -1.22036681E-01 -4.56293913E-03 -1.60317117E-01  1.65836957E-01 -1.15319335E+00
 -7.25566289E-03 -2.80300887E-01  5.57479635E-01  4.05927274E-03  1.05529217E-02
 -3.25574695E-03  3.58708821E-05 -3.92288009E-04 -1.39857386E-02  5.88720143E-02
 -9.96187301E-02 -1.95768702E-03 -2.00863807E-01 -1.49096317E-01 -1.00270065E+00
 -6.25346927E-03 -5.30961996E-01 -3.23830484E-01  1.41081115E-03  1.10256273E-02
 -4.46120723E-03  3.21091270E-04  4.40447443E-04  1.19255838E-02  7.82190354E-02
  1.31911292E+00 -3.50299063E-05  4.28723288E-01  7.96290946E-02  1.33677242E+00
 -1.14346741E-01  1.70708624E-01 -1.23908852E-02 -1.76182046E-01 -1.44193738E-01
  1.76116119E+00 -3.52871817E-02 -4.67760209E-01 -2.98629031E-01 -8.65616152E-03
 -5.02164399E-03 -6.37565945E-03 -8.72922518E-05 -4.25828348E-05 -1.42748904E-02
  6.58526026E-02 -8.88092917E-02  6.85481700E-04 -1.67739889E-01 -2.79361599E-02
 -9.54792979E-01  6.79689741E-03 -2.95480916E-01  5.76300828E-02  7.45897442E-03
 -1.46116973E-03  1.11472155E-02 -5.79028047E-04  9.03164600E-04  1.71559686E-02
  8.37869009E-02  9.68413877E-01 -1.01058424E-01 -1.66380813E+00 -1.46439047E-02
 -4.67296839E-01  3.19534327E-02 -1.34176259E-02 -1.41332774E-02 -3.89400131E-01
  4.09316290E-03 -7.43318365E-01 -5.12869851E-02 -1.50103797E+00 -4.20632185E-01
  5.90170373E-03 -4.79433576E-03  6.42285453E-03 -2.63237790E-04  7.16288836E-05
  5.34683855E-03 -6.50833945E-02  1.06142630E-01  2.93034769E-03  1.71007367E-01
  4.12329434E-02  1.36245332E+00  2.42305280E-02  9.72756628E-01 -1.56280995E-01
 -7.05227753E-03  3.23121151E-03  3.09719461E-04  4.50984758E-05  7.65628936E-04
  2.37098923E-02  3.00273686E-02 -1.27473806E+00 -3.74838671E-03 -1.37999327E+00
  2.05351585E-02  1.60500395E+00  7.70583378E-02 -5.12216088E-02  7.10997792E-04
  7.25432526E-02 -1.93619540E-01 -2.54380438E+00  2.43337890E-03  2.79817907E-01
 -2.59970252E+00  7.96336944E-03 -2.76369387E-02  2.75429374E-02 -1.71667866E-03
 -2.56629946E-04 -1.57030727E-02 -8.63224876E-02  1.10047652E-01 -2.73777032E-03
 -1.83725091E-01 -2.17855591E-01  2.76292762E+00 -2.99950513E-03 -3.14009950E-01
 -2.39051817E+00 -2.75275372E-03  1.74189208E-02 -1.83622856E-02  3.68241087E-04
  1.84450576E-04  7.15793540E-04  7.04015385E-02  6.75172056E-01 -9.21485834E-02
 -2.19212378E-01 -5.19557379E-02 -7.64595075E-01  1.65453168E-02  1.86878982E-01
 -9.36296152E-04  8.55370081E-03  5.57098066E-01  3.55354372E-01 -3.79532128E-03
 -8.24722315E-02 -9.96628167E-01 -5.35613799E-03 -3.84465151E-02  8.09856731E-02
 -1.34770957E-03  1.02466849E-04  6.83339849E-03  2.93949031E-02  1.45301407E-01
  9.59393833E-04  6.37474138E-02 -5.85247409E-01  1.43392155E-01  1.30372033E-03
  4.60079340E-02  1.04752194E+00 -9.93236689E-03 -3.59808556E-02  8.00984549E-02
 -7.44702054E-04  9.04384725E-05 -2.10566814E-03 -7.67030191E-02 -9.31491439E-02
 -6.12940917E-02 -2.09710980E-01 -7.52380087E-02 -7.13663977E-02 -2.68259572E-04
  4.52760128E-03  6.89103048E-01 -2.38615178E-02 -1.03782193E-03 -2.05065851E-03
 -5.71363802E-01  1.71844434E-02 -3.34740855E-03  3.25352705E-04 -6.01612256E-05
  6.47333141E-04 -1.15518037E-04  5.20248597E-02 -1.82796146E-03 -1.67643135E-05
  3.17446232E-03  7.69549021E-01 -1.11620980E-02 -4.74750822E-04 -2.69376547E-04
 -7.33303409E-01  8.67995470E-03 -2.53616887E-04 -9.98478605E-05  5.09460634E-04
  5.15127392E-04 -3.23094073E-03 -5.17163489E-02  2.05827577E-03  2.88985244E-03
 -2.82025892E-03 -3.11555461E-03 -5.88382886E-03  1.96644041E-03  3.82603005E-04
 -5.96902056E-03  1.05342792E-01  7.64603512E-03 -1.96358213E-01  1.66616553E-01
  1.14108566E-01  3.18093805E-03  3.61017931E-01  8.92027231E-02  6.39887001E-03
  1.19049304E-02 -7.71648767E-03  1.43849395E-03  1.42419764E-03  2.96205342E-02
 -1.63999710E-02  3.20866219E-01 -2.29480302E-02 -8.18468658E-01  2.34153268E-01
 -3.26360255E-01  2.64141730E-02  1.09394128E+00  1.99980405E-01  2.85386990E-02
 -2.39373515E-02  6.32648048E-02 -5.80949049E-04 -1.74446643E-03 -3.50200979E-02
 -2.81256590E-01 -2.33521818E-01  2.62045337E-01  1.51347878E-01 -1.93853705E-01
 -6.27100413E-02  3.18672558E-03 -4.44137003E-01 -1.17251568E-02 -3.41144037E-01
 -2.94797245E-01  3.79773107E-01  3.10492246E-02  8.52599664E-01 -1.83381370E-01
  9.83764233E-03 -7.88455941E-02 -5.23795083E-03 -2.26751163E-03  2.72528756E-03
  1.01014438E-01 -3.26996602E-02 -6.25520765E-01  9.95349896E-03  2.50496462E-01
 -2.59807858E-01  1.14559439E+00 -1.80185039E-02 -2.87596515E-01  2.56927303E-02
  2.52474634E-02 -7.92648745E-02 -1.22108355E-01 -1.93741668E-03 -1.80190872E-03
 -8.49485365E-02 -5.26058555E-01  1.68912649E-01  9.87775834E-02 -3.71774758E-02
 -4.84436024E-01 -1.65973617E-01 -4.34954172E-04 -1.60485425E-03 -8.22243408E-01
  2.86576169E-02  9.33932624E-03  3.54409243E-03  1.17033034E+00 -3.96470672E-02
 -2.72768305E-03  3.33018031E-04  2.05219560E-04 -1.94284857E-03 -3.69625934E-04
  9.86851083E-03  3.09322752E-04  1.73896343E-04  3.04022678E-03  7.23143486E-01
 -2.58543935E-02  1.02534791E-02 -3.60050872E-03 -1.09701209E+00  4.22880963E-02
 -2.32017168E-03 -1.70435294E-04 -4.53631035E-04  2.20681547E-03 -3.70422710E-03
  2.17878031E-02 -1.33909439E-03 -2.34561002E-03 -5.02407822E-03  7.26424556E-04
  2.78178067E-03 -3.16158686E-03  3.53789032E-03  8.92335037E-02  3.19927768E-01
 -8.76449649E-03 -8.55339191E-02 -5.29481225E-01 -8.52055756E-01  2.83307013E-02
  2.44682440E-01  9.24684800E-01 -9.92148312E-02  1.15459803E-01  1.63693490E-01
  9.60007169E-03  1.86865594E-03  2.26185022E-02 -4.33747671E-02  4.03618939E-01
  4.97002399E-03  2.80346575E-02 -5.68600034E-01 -6.16845272E-01 -1.56765610E-02
 -9.16919072E-02  5.22505724E-01  2.97882535E-02  5.52440020E-02 -8.68076778E-02
  1.45517583E-03 -1.21866750E-03 -2.07308153E-02 -7.80931617E-02  5.75281036E-02
  5.90914498E-01  2.09540683E-01  4.59518101E-01  1.08313625E-01 -2.90662075E-03
  4.78986212E-01 -3.10146969E-02 -8.54643900E-01  3.10414923E-01 -1.23973754E+00
  9.42620073E-02  2.76166901E+00 -7.19867297E-01 -3.74136769E-03  8.02213993E-02
 -2.14849384E-02  4.50417082E-03  1.73563740E-03  2.57573424E-02  2.93085816E-02
  3.79052156E-01  7.42898958E-03  4.67647620E-01  4.09840569E-01 -5.45217923E-01
 -4.45239259E-02 -1.98765669E+00 -1.17346590E+00 -5.83575916E-02  6.08689041E-02
  1.11286530E-01  2.91101000E-03 -1.20713698E-03 -8.67258755E-03  6.28715303E-02
  1.41131307E+00  8.01574681E-02  1.26489445E+00  1.02701387E-01 -1.47872017E+00
  4.78233459E-03  3.20415548E-01  2.62035213E-02  6.75422791E-01  1.79823773E-01
 -9.02176911E-01 -4.50393993E-02 -1.09836948E+00 -5.17526340E-01 -4.77798293E-03
  5.07012227E-02 -4.24001214E-03  3.17077257E-03  5.63474366E-03  1.65782396E-01
 -3.51455527E-03  4.77203592E-01  4.72563369E-03  3.92374709E-01  3.80434586E-01
 -6.26325888E-01 -6.49271515E-03 -7.24337891E-01 -9.09096596E-01  1.92746352E-02
 -1.91286823E-02  9.08604728E-02 -9.16996102E-04 -4.36240760E-03 -1.41704564E-01
 -4.49212806E-01  1.42503417E+00  5.34294634E-01 -1.20202514E+00 -3.91545774E-01
  1.04261607E+00  3.00634424E-02 -1.01001180E+00  7.90230403E-03  1.60233609E-02
  6.30105892E-01  1.51320536E+00 -1.76584948E-02 -1.43637974E-01 -1.32994372E+00
 -1.10622076E-01  1.01429916E-01 -1.42020453E-01  8.94709890E-03  1.43643226E-03
 -4.50254259E-03 -8.44031015E-03 -5.54612730E-01 -6.16394598E-04 -8.18481812E-03
  1.41459666E-01  1.41136391E+00  4.39300266E-03  1.32854517E-01 -5.53588136E-01
  5.59031599E-03 -5.28090612E-02 -1.87030758E-02 -1.92585794E-03 -1.00170182E-03
 -5.96130393E-05 -5.27109105E-02 -8.08714672E-02  6.12199916E-01 -1.41797939E+00
  6.66197145E-01 -1.32016052E+00 -3.22669439E-03  3.22760969E-01  4.95377914E-03
  1.68314945E-01  9.12170744E-02 -1.08065468E+00  1.95310896E-02  5.58133111E-01
 -3.45093335E-01  6.88635934E-03  5.64714551E-02 -1.74970960E-02  5.99097810E-03
  7.58096158E-03  1.29091905E-01  3.67284576E-02 -6.74706969E-01 -5.65362366E-03
 -2.84598051E-01 -1.17639011E-01  1.51942339E+00 -9.76320375E-03 -2.12057335E-01
 -2.73759134E-01 -1.60028941E-01  1.30160702E-01 -2.98205141E-02  5.78374216E-03
 -3.72641597E-03  8.29810944E-04  9.07958464E-01 -9.47736921E-01  5.60478408E-01
 -1.35892787E-01 -5.24667800E-01  3.20992736E-01 -3.64251657E-02 -1.48619537E+00
 -1.32245513E-03 -4.37393000E-02 -1.56483075E-01  5.36655167E+00  1.76893236E-02
  7.75163831E-01  1.74501746E+00 -2.44129671E-02 -1.61810945E-01 -5.59779856E-03
 -4.68863326E-03  3.49231912E-03  5.36593415E-02  4.11911434E-02  1.39495314E+00
  6.78928954E-04  6.98000971E-02 -2.12733181E-01 -5.14031355E+00 -1.57994726E-02
 -8.59478624E-01  1.86440744E+00 -1.61903112E-02  2.07988063E-01 -1.12371200E-02
  2.98994137E-03 -1.86696174E-03  9.41407712E-03  3.43472574E-01  5.63358165E-01
  9.30915401E-02 -2.17098897E-01 -3.00099242E-01 -6.12382098E-01 -4.96582346E-05
 -3.14550194E-03  1.61786172E-01 -6.21888239E-03  1.29876584E-03  1.16222189E-02
 -2.97584998E-02  8.86410734E-03  2.33707692E-04 -6.65859057E-03  7.70684099E-03
 -7.85848399E-04 -1.08091436E-03 -6.17561794E-01  2.30592188E-02  3.62108121E-04
  1.83267093E-03  1.53362018E-01 -6.05030621E-03 -9.29404869E-04 -8.61670595E-03
 -2.52699507E-02 -4.97372897E-03  2.62616094E-03 -9.62982130E-03  1.11221726E-02
 -7.03904236E-04  5.10024157E-03  6.28069909E-01 -2.19644950E-02  6.20078487E-03
 -6.90519290E-04  3.05861868E-03 -1.09226022E-03 -9.82309994E-04 -5.70126967E-03
 -2.77210640E-04 -4.45584343E-03 -1.07649580E-03  4.51394361E-03  3.51415916E-04
  1.62085006E-02  3.08570152E-03  1.11608272E-02  4.93151636E-04  3.97213983E-02
 -4.01127965E-02  1.94186373E-04  6.63181005E-01  2.33463241E-03 -1.17604827E-02
  2.53240339E-04  6.67398902E-03  2.35482839E-03  5.04719551E-03  9.96834835E-04
 -2.07668718E-02 -7.11351845E-03 -1.45033780E-02 -5.97127803E-04  3.39550403E-02
 -3.41319603E-02  1.32481439E-04  6.99401825E-01  4.88049432E-04  1.52721082E-02
  1.11360849E-03  1.22650609E-02  5.05191568E-03 -3.24108781E-03 -8.65764925E-03
 -3.53773307E-03  1.14596741E-02  9.13795102E-02  4.30332270E-03  7.93858373E-02
  1.47538186E-02 -3.05780085E-01  4.10112192E-02  1.11175931E+00  1.17987971E-01
  2.39007813E-01 -2.43859124E-01  6.74054930E-03  3.92862892E-02 -1.56467180E-02
 -2.49708198E-01  6.65980398E-03  1.71780326E-01  5.25935564E-03  1.39684935E-01
  3.14414071E-02 -4.78309999E-01 -2.21241966E-02 -8.15578854E-01 -2.06255215E-01
  5.29297964E-01 -5.44086375E-01  2.26693507E-03 -1.12504897E-01  2.86964236E-02
  6.12956845E-01  1.25467610E-01  4.43374839E-01  5.72745949E-01  3.70679537E-01
 -2.72610752E-01 -2.59085272E-01 -6.02699706E-04 -2.95350904E-03 -1.45069118E-04
 -1.04958961E-02 -1.51069377E-03  1.07733917E-02 -7.83290639E-03 -1.36714489E-01
 -6.97471091E-03  3.41160861E-02 -3.26893944E-02 -1.50738468E-03  7.47241114E-01
 -2.47179146E-03  2.59299841E-02 -5.52732271E-04 -1.76999974E-02 -1.79871196E-03
 -1.58282326E-02 -4.17187291E-03  5.03381863E-02  8.12382405E-03  9.15856812E-02
  1.85498865E-02 -6.96154533E-02  7.20806122E-02 -4.89315124E-04 -7.08837594E-01
 -1.77132832E-03 -7.94392824E-02 -5.78813795E-03 -4.78127496E-02 -6.44294396E-02
 -3.86062390E-02  4.56327568E-02  3.80135077E-02  2.56073074E-02  1.95856063E-01
 -3.79112654E-03 -1.43605774E-01  1.08205192E-01 -4.32803548E-01 -5.84269255E-03
 -1.85258172E-01  1.75815760E-01  6.06486055E-01 -3.83764038E-01 -1.45042337E-01
 -5.00607728E-02  6.47406713E-03  3.88335965E-01  2.93590655E-02  1.54683446E-01
 -1.87896743E-03 -1.11853721E-01 -1.02143637E-01 -4.96838962E-01 -6.53224395E-04
 -1.83876379E-01  6.38805659E-03  5.34392978E-01 -2.86353352E-01 -1.58433690E-01
  3.75266366E-03 -1.16114769E-02 -4.91382552E-01  5.34362017E-01  5.36675521E-02
 -4.18656307E-02  1.31274371E-01  5.66969675E-01  8.37974232E-02 -1.99226773E-02