 Entering Gaussian System, Link 0=g16
 Initial command:
 /home/kangmg/compchem/gaussian/g16/l1.exe "/home/kangmg/compchem/gaussian/scratch/Gau-32756.inp" -scrdir="/home/kangmg/compchem/gaussian/scratch/"
 Entering Link 1 = /home/kangmg/compchem/gaussian/g16/l1.exe PID=     32758.
  
 Copyright (c) 1988,1990,1992,1993,1995,1998,2003,2009,2016,
            Gaussian, Inc.  All Rights Reserved.
  
 This is part of the Gaussian(R) 16 program.  It is based on
 the Gaussian(R) 09 system (copyright 2009, Gaussian, Inc.),
 the Gaussian(R) 03 system (copyright 2003, Gaussian, Inc.),
 the Gaussian(R) 98 system (copyright 1998, Gaussian, Inc.),
 the Gaussian(R) 94 system (copyright 1995, Gaussian, Inc.),
 the Gaussian 92(TM) system (copyright 1992, Gaussian, Inc.),
 the Gaussian 90(TM) system (copyright 1990, Gaussian, Inc.),
 the Gaussian 88(TM) system (copyright 1988, Gaussian, Inc.),
 the Gaussian 86(TM) system (copyright 1986, Carnegie Mellon
 University), and the Gaussian 82(TM) system (copyright 1983,
 Carnegie Mellon University). Gaussian is a federally registered
 trademark of Gaussian, Inc.
  
 This software contains proprietary and confidential information,
 including trade secrets, belonging to Gaussian, Inc.
  
 This software is provided under written license and may be
 used, copied, transmitted, or stored only in accord with that
 written license.
  
 The following legend is applicable only to US Government
 contracts under FAR:
  
                    RESTRICTED RIGHTS LEGEND
  
 Use, reproduction and disclosure by the US Government is
 subject to restrictions as set forth in subparagraphs (a)
 and (c) of the Commercial Computer Software - Restricted
 Rights clause in FAR 52.227-19.
  
 Gaussian, Inc.
 340 Quinnipiac St., Bldg. 40, Wallingford CT 06492
  
  
 ---------------------------------------------------------------
 Warning -- This program may not be used in any manner that
 competes with the business of Gaussian, Inc. or will provide
 assistance to any competitor of Gaussian, Inc.  The licensee
 of this program is prohibited from giving any competitor of
 Gaussian, Inc. access to this program.  By using this program,
 the user acknowledges that Gaussian, Inc. is engaged in the
 business of creating and licensing software in the field of
 computational chemistry and represents and warrants to the
 licensee that it is not a competitor of Gaussian, Inc. and that
 it will not use this program in any manner prohibited above.
 ---------------------------------------------------------------
  

 Cite this work as:
 Gaussian 16, Revision A.03,
 M. J. Frisch, G. W. Trucks, H. B. Schlegel, G. E. Scuseria, 
 M. A. Robb, J. R. Cheeseman, G. Scalmani, V. Barone, 
 G. A. Petersson, H. Nakatsuji, X. Li, M. Caricato, A. V. Marenich, 
 J. Bloino, B. G. Janesko, R. Gomperts, B. Mennucci, H. P. Hratchian, 
 J. V. Ortiz, A. F. Izmaylov, J. L. Sonnenberg, D. Williams-Young, 
 F. Ding, F. Lipparini, F. Egidi, J. Goings, B. Peng, A. Petrone, 
 T. Henderson, D. Ranasinghe, V. G. Zakrzewski, J. Gao, N. Rega, 
 G. Zheng, W. Liang, M. Hada, M. Ehara, K. Toyota, R. Fukuda, 
 J. Hasegawa, M. Ishida, T. Nakajima, Y. Honda, O. Kitao, H. Nakai, 
 T. Vreven, K. Throssell, J. A. Montgomery, Jr., J. E. Peralta, 
 F. Ogliaro, M. J. Bearpark, J. J. Heyd, E. N. Brothers, K. N. Kudin, 
 V. N. Staroverov, T. A. Keith, R. Kobayashi, J. Normand, 
 K. Raghavachari, A. P. Rendell, J. C. Burant, S. S. Iyengar, 
 J. Tomasi, M. Cossi, J. M. Millam, M. Klene, C. Adamo, R. Cammi, 
 J. W. Ochterski, R. L. Martin, K. Morokuma, O. Farkas, 
 J. B. Foresman, and D. J. Fox, Gaussian, Inc., Wallingford CT, 2016.
 
 ******************************************
 Gaussian 16:  ES64L-G16RevA.03 25-Dec-2016
                 8-Jan-2024 
 ******************************************
 %chk=3_fragment1.chk
 -----------------------------------------------
 #p b3lyp/6-31G* em=gd3bj ExtraLinks=L608 nosymm
 -----------------------------------------------
 1/38=1,172=1/1;
 2/12=2,15=1,17=6,18=5,40=1/2;
 3/5=1,6=6,7=1,11=2,25=1,30=1,74=-5,124=41/1,2,3;
 4//1;
 5/5=2,38=5/2;
 6/7=2,8=2,9=2,10=2,28=1/1,8;
 99/5=1,9=1/99;
 Leave Link    1 at Mon Jan  8 21:35:20 2024, MaxMem=           0 cpu:               0.0 elap:               0.0
 (Enter /home/kangmg/compchem/gaussian/g16/l101.exe)
 --------------
 opted geometry
 --------------
 Symbolic Z-matrix:
 Charge =  0 Multiplicity = 2
 C                    -0.09722  -0.28112   0.88395 
 C                     0.27909  -1.53208   0.5129 
 H                     0.6674   -1.75443  -0.48528 
 H                     0.2274   -2.37404   1.20675 
 H                    -0.44927  -0.12175   1.91034 
 
 ITRead=  0  0  0  0  0
 MicOpt= -1 -1 -1 -1 -1
 NAtoms=      5 NQM=        5 NQMF=       0 NMMI=      0 NMMIF=      0
                NMic=       0 NMicF=      0.
                    Isotopes and Nuclear Properties:
 (Nuclear quadrupole moments (NQMom) in fm**2, nuclear magnetic moments (NMagM)
  in nuclear magnetons)

  Atom         1           2           3           4           5
 IAtWgt=          12          12           1           1           1
 AtmWgt=  12.0000000  12.0000000   1.0078250   1.0078250   1.0078250
 NucSpn=           0           0           1           1           1
 AtZEff=  -0.0000000  -0.0000000  -0.0000000  -0.0000000  -0.0000000
 NQMom=    0.0000000   0.0000000   0.0000000   0.0000000   0.0000000
 NMagM=    0.0000000   0.0000000   2.7928460   2.7928460   2.7928460
 AtZNuc=   6.0000000   6.0000000   1.0000000   1.0000000   1.0000000
 Leave Link  101 at Mon Jan  8 21:35:20 2024, MaxMem=   104857600 cpu:               0.2 elap:               0.2
 (Enter /home/kangmg/compchem/gaussian/g16/l202.exe)
                          Input orientation:                          
 ---------------------------------------------------------------------
 Center     Atomic      Atomic             Coordinates (Angstroms)
 Number     Number       Type             X           Y           Z
 ---------------------------------------------------------------------
      1          6           0       -0.097223   -0.281116    0.883951
      2          6           0        0.279093   -1.532085    0.512905
      3          1           0        0.667400   -1.754427   -0.485279
      4          1           0        0.227404   -2.374035    1.206754
      5          1           0       -0.449266   -0.121751    1.910344
 ---------------------------------------------------------------------
                    Distance matrix (angstroms):
                    1          2          3          4          5
     1  C    0.000000
     2  C    1.358018   0.000000
     3  H    2.151763   1.093887   0.000000
     4  H    2.142404   1.092236   1.854854   0.000000
     5  H    1.096729   2.114802   3.106700   2.454732   0.000000
 Symmetry turned off by external request.
 Stoichiometry    C2H3(2)
 Framework group  C1[X(C2H3)]
 Deg. of freedom     9
 Full point group                 C1      NOp   1
 Rotational constants (GHZ):         200.5717829          32.0630128          27.6452206
 Leave Link  202 at Mon Jan  8 21:35:20 2024, MaxMem=   104857600 cpu:               0.0 elap:               0.0
 (Enter /home/kangmg/compchem/gaussian/g16/l301.exe)
 Standard basis: 6-31G(d) (6D, 7F)
 Ernie: Thresh=  0.10000D-02 Tol=  0.10000D-05 Strict=F.
    36 basis functions,    68 primitive gaussians,    36 cartesian basis functions
     8 alpha electrons        7 beta electrons
       nuclear repulsion energy        27.8627287273 Hartrees.
 IExCor=  402 DFT=T Ex+Corr=B3LYP ExCW=0 ScaHFX=  0.200000
 ScaDFX=  0.800000  0.720000  1.000000  0.810000 ScalE2=  1.000000  1.000000
 IRadAn=      5 IRanWt=     -1 IRanGd=            0 ICorTp=0 IEmpDi=141
 NAtoms=    5 NActive=    5 NUniq=    5 SFac= 1.00D+00 NAtFMM=   60 NAOKFM=F Big=F
 Integral buffers will be    131072 words long.
 Raffenetti 2 integral format.
 Two-electron integral symmetry is turned off.
 R6Disp:  Grimme-D3(BJ) Dispersion energy=       -0.0031053635 Hartrees.
 Nuclear repulsion after empirical dispersion term =       27.8596233638 Hartrees.
 Leave Link  301 at Mon Jan  8 21:35:20 2024, MaxMem=   104857600 cpu:               0.1 elap:               0.1
 (Enter /home/kangmg/compchem/gaussian/g16/l302.exe)
 NPDir=0 NMtPBC=     1 NCelOv=     1 NCel=       1 NClECP=     1 NCelD=      1
         NCelK=      1 NCelE2=     1 NClLst=     1 CellRange=     0.0.
 One-electron integrals computed using PRISM.
 NBasis=    36 RedAO= T EigKep=  8.32D-03  NBF=    36
 NBsUse=    36 1.00D-06 EigRej= -1.00D+00 NBFU=    36
 Precomputing XC quadrature grid using
 IXCGrd= 4 IRadAn=           5 IRanWt=          -1 IRanGd=           0 AccXCQ= 0.00D+00.
 Generated NRdTot=       0 NPtTot=           0 NUsed=           0 NTot=          32
 NSgBfM=    36    36    36    36    36 MxSgAt=     5 MxSgA2=     5.
 Leave Link  302 at Mon Jan  8 21:35:20 2024, MaxMem=   104857600 cpu:               0.2 elap:               0.2
 (Enter /home/kangmg/compchem/gaussian/g16/l303.exe)
 DipDrv:  MaxL=1.
 Leave Link  303 at Mon Jan  8 21:35:20 2024, MaxMem=   104857600 cpu:               0.0 elap:               0.0
 (Enter /home/kangmg/compchem/gaussian/g16/l401.exe)
 ExpMin= 1.61D-01 ExpMax= 3.05D+03 ExpMxC= 4.57D+02 IAcc=3 IRadAn=         5 AccDes= 0.00D+00
 Harris functional with IExCor=  402 and IRadAn=       5 diagonalized for initial guess.
 HarFok:  IExCor=  402 AccDes= 0.00D+00 IRadAn=         5 IDoV= 1 UseB2=F ITyADJ=14
 ICtDFT=  3500011 ScaDFX=  1.000000  1.000000  1.000000  1.000000
 FoFCou: FMM=F IPFlag=           0 FMFlag=      100000 FMFlg1=           0
         NFxFlg=           0 DoJE=T BraDBF=F KetDBF=T FulRan=T
         wScrn=  0.000000 ICntrl=       500 IOpCl=  0 I1Cent=   200000004 NGrid=           0
         NMat0=    1 NMatS0=      1 NMatT0=    0 NMatD0=    1 NMtDS0=    0 NMtDT0=    0
 Symmetry not used in FoFCou.
 Harris En= -77.8891163776794    
 JPrj=0 DoOrth=F DoCkMO=F.
 Initial guess <Sx>= 0.0000 <Sy>= 0.0000 <Sz>= 0.5000 <S**2>= 0.7500 S= 0.5000
 Leave Link  401 at Mon Jan  8 21:35:21 2024, MaxMem=   104857600 cpu:               0.7 elap:               0.7
 (Enter /home/kangmg/compchem/gaussian/g16/l502.exe)
 Keep R1 and R2 ints in memory in canonical form, NReq=1307300.
 FoFCou: FMM=F IPFlag=           0 FMFlag=           0 FMFlg1=           0
         NFxFlg=           0 DoJE=F BraDBF=F KetDBF=F FulRan=T
         wScrn=  0.000000 ICntrl=       600 IOpCl=  0 I1Cent=           0 NGrid=           0
         NMat0=    1 NMatS0=    666 NMatT0=    0 NMatD0=    1 NMtDS0=    0 NMtDT0=    0
 Symmetry not used in FoFCou.
 Two-electron integral symmetry not used.
 UHF open shell SCF:
 Using DIIS extrapolation, IDIIS=  1040.
 NGot=   104857600 LenX=   104410073 LenY=   104408336
 Requested convergence on RMS density matrix=1.00D-08 within 128 cycles.
 Requested convergence on MAX density matrix=1.00D-06.
 Requested convergence on             energy=1.00D-06.
 No special actions if energy rises.
 Integral accuracy reduced to 1.0D-05 until final iterations.

 Cycle   1  Pass 0  IDiag  1:
 E= -77.8306754496247    
 DIIS: error= 4.52D-02 at cycle   1 NSaved=   1.
 NSaved= 1 IEnMin= 1 EnMin= -77.8306754496247     IErMin= 1 ErrMin= 4.52D-02
 ErrMax= 4.52D-02  0.00D+00 EMaxC= 1.00D-01 BMatC= 2.29D-01 BMatP= 2.29D-01
 IDIUse=3 WtCom= 5.48D-01 WtEn= 4.52D-01
 Coeff-Com:  0.100D+01
 Coeff-En:   0.100D+01
 Coeff:      0.100D+01
 Gap=     0.307 Goal=   None    Shift=    0.000
 Gap=     0.118 Goal=   None    Shift=    0.000
 GapD=    0.118 DampG=1.000 DampE=0.500 DampFc=0.5000 IDamp=-1.
 Damping current iteration by 5.00D-01
 RMSDP=1.28D-02 MaxDP=1.33D-01              OVMax= 1.98D-01

 Cycle   2  Pass 0  IDiag  1:
 E= -77.8599357462587     Delta-E=       -0.029260296634 Rises=F Damp=T
 DIIS: error= 1.21D-02 at cycle   2 NSaved=   2.
 NSaved= 2 IEnMin= 2 EnMin= -77.8599357462587     IErMin= 2 ErrMin= 1.21D-02
 ErrMax= 1.21D-02  0.00D+00 EMaxC= 1.00D-01 BMatC= 1.47D-02 BMatP= 2.29D-01
 IDIUse=3 WtCom= 8.79D-01 WtEn= 1.21D-01
 Coeff-Com:  0.631D-01 0.937D+00
 Coeff-En:   0.868D-01 0.913D+00
 Coeff:      0.660D-01 0.934D+00
 Gap=     0.270 Goal=   None    Shift=    0.000
 Gap=     0.169 Goal=   None    Shift=    0.000
 RMSDP=2.94D-03 MaxDP=3.67D-02 DE=-2.93D-02 OVMax= 1.48D-01

 Cycle   3  Pass 0  IDiag  1:
 E= -77.8909918656570     Delta-E=       -0.031056119398 Rises=F Damp=F
 DIIS: error= 1.76D-02 at cycle   3 NSaved=   3.
 NSaved= 3 IEnMin= 3 EnMin= -77.8909918656570     IErMin= 2 ErrMin= 1.21D-02
 ErrMax= 1.76D-02  0.00D+00 EMaxC= 1.00D-01 BMatC= 1.82D-02 BMatP= 1.47D-02
 IDIUse=2 WtCom= 0.00D+00 WtEn= 1.00D+00
 Coeff-En:   0.000D+00 0.000D+00 0.100D+01
 Coeff:      0.000D+00 0.000D+00 0.100D+01
 Gap=     0.288 Goal=   None    Shift=    0.000
 Gap=     0.145 Goal=   None    Shift=    0.000
 RMSDP=4.63D-03 MaxDP=6.45D-02 DE=-3.11D-02 OVMax= 1.34D-01

 Cycle   4  Pass 0  IDiag  1:
 E= -77.8758374207424     Delta-E=        0.015154444915 Rises=F Damp=F
 DIIS: error= 3.34D-02 at cycle   4 NSaved=   4.
 NSaved= 4 IEnMin= 3 EnMin= -77.8909918656570     IErMin= 2 ErrMin= 1.21D-02
 ErrMax= 3.34D-02  0.00D+00 EMaxC= 1.00D-01 BMatC= 7.37D-02 BMatP= 1.47D-02
 IDIUse=2 WtCom= 0.00D+00 WtEn= 1.00D+00
 Coeff-En:   0.000D+00 0.000D+00 0.747D+00 0.253D+00
 Coeff:      0.000D+00 0.000D+00 0.747D+00 0.253D+00
 Gap=     0.276 Goal=   None    Shift=    0.000
 Gap=     0.163 Goal=   None    Shift=    0.000
 RMSDP=2.28D-03 MaxDP=2.96D-02 DE= 1.52D-02 OVMax= 6.40D-02

 Cycle   5  Pass 0  IDiag  1:
 E= -77.8952540489208     Delta-E=       -0.019416628178 Rises=F Damp=F
 DIIS: error= 8.30D-03 at cycle   5 NSaved=   5.
 NSaved= 5 IEnMin= 5 EnMin= -77.8952540489208     IErMin= 5 ErrMin= 8.30D-03
 ErrMax= 8.30D-03  0.00D+00 EMaxC= 1.00D-01 BMatC= 4.01D-03 BMatP= 1.47D-02
 IDIUse=3 WtCom= 9.17D-01 WtEn= 8.30D-02
 Coeff-Com: -0.143D-01 0.193D-01 0.987D-01-0.223D+00 0.112D+01
 Coeff-En:   0.000D+00 0.000D+00 0.205D+00 0.000D+00 0.795D+00
 Coeff:     -0.131D-01 0.177D-01 0.108D+00-0.205D+00 0.109D+01
 Gap=     0.270 Goal=   None    Shift=    0.000
 Gap=     0.170 Goal=   None    Shift=    0.000
 RMSDP=7.84D-04 MaxDP=1.15D-02 DE=-1.94D-02 OVMax= 2.61D-02

 Cycle   6  Pass 0  IDiag  1:
 E= -77.8964316086866     Delta-E=       -0.001177559766 Rises=F Damp=F
 DIIS: error= 1.08D-03 at cycle   6 NSaved=   6.
 NSaved= 6 IEnMin= 6 EnMin= -77.8964316086866     IErMin= 6 ErrMin= 1.08D-03
 ErrMax= 1.08D-03  0.00D+00 EMaxC= 1.00D-01 BMatC= 2.64D-05 BMatP= 4.01D-03
 IDIUse=3 WtCom= 9.89D-01 WtEn= 1.08D-02
 Coeff-Com:  0.179D-02-0.920D-03-0.154D+00 0.467D-01-0.438D+00 0.154D+01
 Coeff-En:   0.000D+00 0.000D+00 0.000D+00 0.000D+00 0.000D+00 0.100D+01
 Coeff:      0.177D-02-0.910D-03-0.152D+00 0.462D-01-0.433D+00 0.154D+01
 Gap=     0.271 Goal=   None    Shift=    0.000
 Gap=     0.171 Goal=   None    Shift=    0.000
 RMSDP=2.53D-04 MaxDP=4.09D-03 DE=-1.18D-03 OVMax= 9.99D-03

 Cycle   7  Pass 0  IDiag  1:
 E= -77.8964769646007     Delta-E=       -0.000045355914 Rises=F Damp=F
 DIIS: error= 2.94D-04 at cycle   7 NSaved=   7.
 NSaved= 7 IEnMin= 7 EnMin= -77.8964769646007     IErMin= 7 ErrMin= 2.94D-04
 ErrMax= 2.94D-04  0.00D+00 EMaxC= 1.00D-01 BMatC= 3.10D-06 BMatP= 2.64D-05
 IDIUse=3 WtCom= 9.97D-01 WtEn= 2.94D-03
 Coeff-Com:  0.329D-02-0.235D-02-0.133D-01 0.484D-01-0.242D+00-0.269D+00
 Coeff-Com:  0.148D+01
 Coeff-En:   0.000D+00 0.000D+00 0.000D+00 0.000D+00 0.000D+00 0.000D+00
 Coeff-En:   0.100D+01
 Coeff:      0.328D-02-0.235D-02-0.133D-01 0.483D-01-0.242D+00-0.268D+00
 Coeff:      0.147D+01
 Gap=     0.271 Goal=   None    Shift=    0.000
 Gap=     0.171 Goal=   None    Shift=    0.000
 RMSDP=1.72D-04 MaxDP=2.52D-03 DE=-4.54D-05 OVMax= 6.09D-03

 Cycle   8  Pass 0  IDiag  1:
 E= -77.8964875896903     Delta-E=       -0.000010625090 Rises=F Damp=F
 DIIS: error= 4.92D-05 at cycle   8 NSaved=   8.
 NSaved= 8 IEnMin= 8 EnMin= -77.8964875896903     IErMin= 8 ErrMin= 4.92D-05
 ErrMax= 4.92D-05  0.00D+00 EMaxC= 1.00D-01 BMatC= 1.63D-07 BMatP= 3.10D-06
 IDIUse=1 WtCom= 1.00D+00 WtEn= 0.00D+00
 Coeff-Com: -0.816D-03 0.200D-02 0.183D-01-0.122D-01 0.779D-01-0.180D+00
 Coeff-Com: -0.805D-01 0.118D+01
 Coeff:     -0.816D-03 0.200D-02 0.183D-01-0.122D-01 0.779D-01-0.180D+00
 Coeff:     -0.805D-01 0.118D+01
 Gap=     0.271 Goal=   None    Shift=    0.000
 Gap=     0.171 Goal=   None    Shift=    0.000
 RMSDP=3.36D-05 MaxDP=4.56D-04 DE=-1.06D-05 OVMax= 1.17D-03

 Cycle   9  Pass 0  IDiag  1:
 E= -77.8964879457272     Delta-E=       -0.000000356037 Rises=F Damp=F
 DIIS: error= 4.74D-06 at cycle   9 NSaved=   9.
 NSaved= 9 IEnMin= 9 EnMin= -77.8964879457272     IErMin= 9 ErrMin= 4.74D-06
 ErrMax= 4.74D-06  0.00D+00 EMaxC= 1.00D-01 BMatC= 3.11D-09 BMatP= 1.63D-07
 IDIUse=1 WtCom= 1.00D+00 WtEn= 0.00D+00
 Coeff-Com:  0.881D-04-0.364D-03-0.282D-02 0.116D-02-0.874D-02 0.334D-01
 Coeff-Com: -0.164D-01-0.189D+00 0.118D+01
 Coeff:      0.881D-04-0.364D-03-0.282D-02 0.116D-02-0.874D-02 0.334D-01
 Coeff:     -0.164D-01-0.189D+00 0.118D+01
 Gap=     0.271 Goal=   None    Shift=    0.000
 Gap=     0.171 Goal=   None    Shift=    0.000
 RMSDP=2.84D-06 MaxDP=3.57D-05 DE=-3.56D-07 OVMax= 8.75D-05

 Initial convergence to 1.0D-05 achieved.  Increase integral accuracy.
 Cycle  10  Pass 1  IDiag  1:
 E= -77.8964873904774     Delta-E=        0.000000555250 Rises=F Damp=F
 DIIS: error= 1.15D-06 at cycle   1 NSaved=   1.
 NSaved= 1 IEnMin= 1 EnMin= -77.8964873904774     IErMin= 1 ErrMin= 1.15D-06
 ErrMax= 1.15D-06  0.00D+00 EMaxC= 1.00D-01 BMatC= 3.46D-10 BMatP= 3.46D-10
 IDIUse=1 WtCom= 1.00D+00 WtEn= 0.00D+00
 Coeff-Com:  0.100D+01
 Coeff:      0.100D+01
 Gap=     0.271 Goal=   None    Shift=    0.000
 Gap=     0.171 Goal=   None    Shift=    0.000
 RMSDP=2.84D-06 MaxDP=3.57D-05 DE= 5.55D-07 OVMax= 8.37D-06

 Cycle  11  Pass 1  IDiag  1:
 E= -77.8964873906289     Delta-E=       -0.000000000152 Rises=F Damp=F
 DIIS: error= 8.03D-07 at cycle   2 NSaved=   2.
 NSaved= 2 IEnMin= 2 EnMin= -77.8964873906289     IErMin= 2 ErrMin= 8.03D-07
 ErrMax= 8.03D-07  0.00D+00 EMaxC= 1.00D-01 BMatC= 9.74D-11 BMatP= 3.46D-10
 IDIUse=1 WtCom= 1.00D+00 WtEn= 0.00D+00
 Coeff-Com:  0.269D+00 0.731D+00
 Coeff:      0.269D+00 0.731D+00
 Gap=     0.271 Goal=   None    Shift=    0.000
 Gap=     0.171 Goal=   None    Shift=    0.000
 RMSDP=2.18D-07 MaxDP=1.81D-06 DE=-1.52D-10 OVMax= 4.16D-06

 Cycle  12  Pass 1  IDiag  1:
 E= -77.8964873906520     Delta-E=       -0.000000000023 Rises=F Damp=F
 DIIS: error= 8.98D-07 at cycle   3 NSaved=   3.
 NSaved= 3 IEnMin= 3 EnMin= -77.8964873906520     IErMin= 2 ErrMin= 8.03D-07
 ErrMax= 8.98D-07  0.00D+00 EMaxC= 1.00D-01 BMatC= 5.72D-11 BMatP= 9.74D-11
 IDIUse=1 WtCom= 1.00D+00 WtEn= 0.00D+00
 Coeff-Com:  0.216D-01 0.411D+00 0.567D+00
 Coeff:      0.216D-01 0.411D+00 0.567D+00
 Gap=     0.271 Goal=   None    Shift=    0.000
 Gap=     0.171 Goal=   None    Shift=    0.000
 RMSDP=1.27D-07 MaxDP=1.66D-06 DE=-2.31D-11 OVMax= 3.31D-06

 Cycle  13  Pass 1  IDiag  1:
 E= -77.8964873906673     Delta-E=       -0.000000000015 Rises=F Damp=F
 DIIS: error= 4.12D-07 at cycle   4 NSaved=   4.
 NSaved= 4 IEnMin= 4 EnMin= -77.8964873906673     IErMin= 4 ErrMin= 4.12D-07
 ErrMax= 4.12D-07  0.00D+00 EMaxC= 1.00D-01 BMatC= 1.40D-11 BMatP= 5.72D-11
 IDIUse=1 WtCom= 1.00D+00 WtEn= 0.00D+00
 Coeff-Com: -0.118D+00-0.616D-01 0.358D+00 0.821D+00
 Coeff:     -0.118D+00-0.616D-01 0.358D+00 0.821D+00
 Gap=     0.271 Goal=   None    Shift=    0.000
 Gap=     0.171 Goal=   None    Shift=    0.000
 RMSDP=6.90D-08 MaxDP=6.78D-07 DE=-1.53D-11 OVMax= 1.54D-06

 Cycle  14  Pass 1  IDiag  1:
 E= -77.8964873906722     Delta-E=       -0.000000000005 Rises=F Damp=F
 DIIS: error= 6.80D-08 at cycle   5 NSaved=   5.
 NSaved= 5 IEnMin= 5 EnMin= -77.8964873906722     IErMin= 5 ErrMin= 6.80D-08
 ErrMax= 6.80D-08  0.00D+00 EMaxC= 1.00D-01 BMatC= 5.81D-13 BMatP= 1.40D-11
 IDIUse=1 WtCom= 1.00D+00 WtEn= 0.00D+00
 Coeff-Com: -0.443D-01-0.443D-01 0.101D+00 0.323D+00 0.664D+00
 Coeff:     -0.443D-01-0.443D-01 0.101D+00 0.323D+00 0.664D+00
 Gap=     0.271 Goal=   None    Shift=    0.000
 Gap=     0.171 Goal=   None    Shift=    0.000
 RMSDP=1.40D-08 MaxDP=1.34D-07 DE=-4.92D-12 OVMax= 2.58D-07

 Cycle  15  Pass 1  IDiag  1:
 E= -77.8964873906724     Delta-E=       -0.000000000000 Rises=F Damp=F
 DIIS: error= 1.35D-08 at cycle   6 NSaved=   6.
 NSaved= 6 IEnMin= 6 EnMin= -77.8964873906724     IErMin= 6 ErrMin= 1.35D-08
 ErrMax= 1.35D-08  0.00D+00 EMaxC= 1.00D-01 BMatC= 3.28D-14 BMatP= 5.81D-13
 IDIUse=1 WtCom= 1.00D+00 WtEn= 0.00D+00
 Coeff-Com:  0.375D-02-0.359D-02-0.225D-01-0.234D-01 0.153D+00 0.892D+00
 Coeff:      0.375D-02-0.359D-02-0.225D-01-0.234D-01 0.153D+00 0.892D+00
 Gap=     0.271 Goal=   None    Shift=    0.000
 Gap=     0.171 Goal=   None    Shift=    0.000
 RMSDP=5.21D-09 MaxDP=4.45D-08 DE=-1.42D-13 OVMax= 1.85D-07

 SCF Done:  E(UB3LYP) =  -77.8964873907     A.U. after   15 cycles
            NFock= 15  Conv=0.52D-08     -V/T= 2.0115
 <Sx>= 0.0000 <Sy>= 0.0000 <Sz>= 0.5000 <S**2>= 0.7659 S= 0.5079
 <L.S>= 0.000000000000E+00
 KE= 7.701032255335D+01 PE=-2.356777728241D+02 EE= 5.291133951624D+01
 Annihilation of the first spin contaminant:
 S**2 before annihilation     0.7659,   after     0.7501
 Leave Link  502 at Mon Jan  8 21:35:29 2024, MaxMem=   104857600 cpu:               8.4 elap:               8.4
 (Enter /home/kangmg/compchem/gaussian/g16/l601.exe)
 Copying SCF densities to generalized density rwf, IOpCl= 1 IROHF=0.

 **********************************************************************

            Population analysis using the SCF density.

 **********************************************************************

 Alpha  occ. eigenvalues --  -10.22279 -10.19631  -0.75615  -0.57214  -0.45674
 Alpha  occ. eigenvalues --   -0.40639  -0.27303  -0.26602
 Alpha virt. eigenvalues --    0.00535   0.11575   0.14044   0.20468   0.31850
 Alpha virt. eigenvalues --    0.48862   0.54404   0.55893   0.60299   0.62797
 Alpha virt. eigenvalues --    0.65966   0.82491   0.85115   0.92075   0.94433
 Alpha virt. eigenvalues --    1.09384   1.44444   1.54336   1.73837   1.81416
 Alpha virt. eigenvalues --    1.90709   2.05064   2.19941   2.34846   2.55666
 Alpha virt. eigenvalues --    2.66898   4.02081   4.20705
  Beta  occ. eigenvalues --  -10.20656 -10.19786  -0.74006  -0.55220  -0.44086
  Beta  occ. eigenvalues --   -0.39308  -0.26384
  Beta virt. eigenvalues --   -0.09237   0.02019   0.12391   0.14556   0.21315
  Beta virt. eigenvalues --    0.33622   0.50042   0.54845   0.59424   0.63607
  Beta virt. eigenvalues --    0.64157   0.67060   0.83335   0.86650   0.92580
  Beta virt. eigenvalues --    0.96451   1.10598   1.45831   1.56718   1.80051
  Beta virt. eigenvalues --    1.84535   1.91861   2.07581   2.21466   2.36529
  Beta virt. eigenvalues --    2.58313   2.69239   4.04727   4.21948
          Condensed to atoms (all electrons):
               1          2          3          4          5
     1  C    5.216116   0.651954  -0.034672  -0.032936   0.342511
     2  C    0.651954   5.010248   0.368896   0.366220  -0.056675
     3  H   -0.034672   0.368896   0.539482  -0.039471   0.004565
     4  H   -0.032936   0.366220  -0.039471   0.544975  -0.005766
     5  H    0.342511  -0.056675   0.004565  -0.005766   0.559924
          Atomic-Atomic Spin Densities.
               1          2          3          4          5
     1  C    1.134997  -0.021578  -0.008714  -0.019634  -0.029577
     2  C   -0.021578  -0.185255   0.009201   0.008556   0.007045
     3  H   -0.008714   0.009201   0.041503  -0.012983   0.001240
     4  H   -0.019634   0.008556  -0.012983   0.102904  -0.007349
     5  H   -0.029577   0.007045   0.001240  -0.007349   0.053438
 Mulliken charges and spin densities:
               1          2
     1  C   -0.142973   1.055494
     2  C   -0.340644  -0.182031
     3  H    0.161200   0.030247
     4  H    0.166978   0.071494
     5  H    0.155439   0.024796
 Sum of Mulliken charges =   0.00000   1.00000
 Mulliken charges and spin densities with hydrogens summed into heavy atoms:
               1          2
     1  C    0.012466   1.080290
     2  C   -0.012466  -0.080290
 Electronic spatial extent (au):  <R**2>=            155.6204
 Charge=              0.0000 electrons
 Dipole moment (field-independent basis, Debye):
    X=              0.0158    Y=             -0.6511    Z=              0.4550  Tot=              0.7945
 Quadrupole moment (field-independent basis, Debye-Ang):
   XX=            -13.9253   YY=            -11.0697   ZZ=            -10.8395
   XY=             -0.6274   XZ=             -0.9735   YZ=             -0.4957
 Traceless Quadrupole moment (field-independent basis, Debye-Ang):
   XX=             -1.9805   YY=              0.8751   ZZ=              1.1053
   XY=             -0.6274   XZ=             -0.9735   YZ=             -0.4957
 Octapole moment (field-independent basis, Debye-Ang**2):
  XXX=             -4.2143  YYY=             32.5724  ZZZ=            -24.1030  XYY=              0.1842
  XXY=             13.6090  XXZ=            -10.2700  XZZ=             -2.5291  YZZ=             10.8363
  YYZ=             -7.5902  XYZ=              0.4775
 Hexadecapole moment (field-independent basis, Debye-Ang**3):
 XXXX=            -20.9150 YYYY=           -114.4212 ZZZZ=            -60.5589 XXXY=             10.3167
 XXXZ=              0.3443 YYYX=              6.9863 YYYZ=             14.8443 ZZZX=             -1.9481
 ZZZY=             19.0482 XXYY=            -25.7844 XXZZ=            -15.2225 YYZZ=            -28.5786
 XXYZ=              8.1930 YYXZ=              0.0747 ZZXY=              3.2309
 N-N= 2.785962336383D+01 E-N=-2.356777722642D+02  KE= 7.701032255335D+01
                          Isotropic Fermi Contact Couplings
        Atom                 a.u.       MegaHertz       Gauss      10(-4) cm-1
     1  C(13)              0.45035     506.27412     180.65120     168.87487
     2  C(13)             -0.00700      -7.87092      -2.80854      -2.62546
     3  H(1)               0.01519      67.88690      24.22373      22.64463
     4  H(1)               0.03249     145.21984      51.81805      48.44013
     5  H(1)               0.02318     103.63247      36.97864      34.56807
 --------------------------------------------------------
       Center         ----  Spin Dipole Couplings  ----
                      3XX-RR        3YY-RR        3ZZ-RR
 --------------------------------------------------------
     1   Atom       -0.333331      0.289339      0.043992
     2   Atom       -0.148455      0.138019      0.010436
     3   Atom       -0.008848      0.014936     -0.006088
     4   Atom       -0.008974      0.012424     -0.003450
     5   Atom       -0.037093     -0.023190      0.060284
 --------------------------------------------------------
                        XY            XZ            YZ
 --------------------------------------------------------
     1   Atom        0.095915      0.010358     -0.653467
     2   Atom       -0.067974     -0.063718     -0.004830
     3   Atom       -0.009951     -0.004928      0.012366
     4   Atom       -0.004832     -0.002782      0.000468
     5   Atom       -0.010485     -0.038266      0.017443
 --------------------------------------------------------


 ---------------------------------------------------------------------------------
              Anisotropic Spin Dipole Couplings in Principal Axis System
 ---------------------------------------------------------------------------------

       Atom             a.u.   MegaHertz   Gauss  10(-4) cm-1        Axes

              Baa    -0.5238   -70.291   -25.082   -23.447 -0.3468  0.6120  0.7107
     1 C(13)  Bbb    -0.3116   -41.815   -14.920   -13.948  0.9362  0.1794  0.3024
              Bcc     0.8354   112.106    40.002    37.394  0.0576  0.7702 -0.6352
 
              Baa    -0.1843   -24.733    -8.826    -8.250  0.9296  0.2007  0.3091
     2 C(13)  Bbb     0.0303     4.070     1.452     1.357 -0.2856 -0.1378  0.9484
              Bcc     0.1540    20.664     7.373     6.893 -0.2329  0.9699  0.0707
 
              Baa    -0.0127    -6.750    -2.409    -2.252  0.9003  0.1400  0.4122
     3 H(1)   Bbb    -0.0117    -6.249    -2.230    -2.085 -0.2984 -0.4912  0.8184
              Bcc     0.0244    13.000     4.639     4.336 -0.3170  0.8597  0.4004
 
              Baa    -0.0109    -5.835    -2.082    -1.947  0.9250  0.1847  0.3321
     4 H(1)   Bbb    -0.0026    -1.383    -0.494    -0.461 -0.3120 -0.1297  0.9412
              Bcc     0.0135     7.219     2.576     2.408 -0.2169  0.9742  0.0624
 
              Baa    -0.0510   -27.237    -9.719    -9.085  0.9401  0.1680  0.2968
     5 H(1)   Bbb    -0.0264   -14.095    -5.030    -4.702 -0.0977  0.9665 -0.2375
              Bcc     0.0775    41.332    14.748    13.787 -0.3267  0.1943  0.9249
 

 ---------------------------------------------------------------------------------

 No NMR shielding tensors so no spin-rotation constants.
 Leave Link  601 at Mon Jan  8 21:35:29 2024, MaxMem=   104857600 cpu:               0.2 elap:               0.2
 (Enter /home/kangmg/compchem/gaussian/g16/l608.exe)
 IExCor=  402 DFT=T Ex+Corr=B3LYP ExCW=0 ScaHFX=  0.200000
 ScaDFX=  0.800000  0.720000  1.000000  0.810000 ScalE2=  1.000000  1.000000
 IRadAn=      5 IRanWt=     -1 IRanGd=            0 ICorTp=0 IEmpDi=  4
 A total of   1 models will be applied.

 Results using SCF density:
 FoFJK:  IHMeth= 0 ICntrl=     500 DoSepK=F KAlg= 0 I1Cent=           0 FoldK=F
 IRaf=         0 NMat=       2 IRICut=       1 DoRegI=T DoRafI=F ISym2E= 0 IDoP0=0 IntGTp=1.
 FoFCou: FMM=F IPFlag=           0 FMFlag=           0 FMFlg1=           0
         NFxFlg=           0 DoJE=F BraDBF=F KetDBF=F FulRan=T
         wScrn=  0.000000 ICntrl=       500 IOpCl=  1 I1Cent=           0 NGrid=           0
         NMat0=    2 NMatS0=      2 NMatT0=    0 NMatD0=    2 NMtDS0=    0 NMtDT0=    0
 Symmetry not used in FoFCou.
 ET=   77.010323 EV= -235.677772 EJ=   64.760887 EK=  -11.321360 ENuc=   27.859623

 A=0 I=   1 IExCor=  402 IRadAn=       5 ScaHFX=  0.200000
            ScaDFX=  0.800000  0.720000  1.000000  0.810000
 HFx=  0.000000  0.000000  1.000000  0.000000  0.000000
 DFx=  0.000000  0.000000  1.000000  0.000000  0.000000
 DFc=  0.000000  0.000000  1.000000  0.000000  0.000000
            ENTVJ=  -66.046939 Ex=  -11.247242 Ec=   -0.602306 ETotM2e= -140.3931025129  ETot=  -77.8964873907
 Leave Link  608 at Mon Jan  8 21:35:30 2024, MaxMem=   104857600 cpu:               0.7 elap:               0.7
 (Enter /home/kangmg/compchem/gaussian/g16/l9999.exe)

 Test job not archived.
 1\1\GINC-KANGMG-22\SP\UB3LYP\6-31G(d)\C2H3(2)\KANGMG\08-Jan-2024\0\\#p
  b3lyp/6-31G* em=gd3bj ExtraLinks=L608 nosymm\\opted geometry\\0,2\C,0
 ,-0.09722328,-0.28111625,0.88395053\C,0,0.27909315,-1.53208498,0.51290
 462\H,0,0.66739952,-1.75442717,-0.48527898\H,0,0.22740426,-2.37403544,
 1.20675376\H,0,-0.44926582,-0.12175063,1.91034382\\Version=ES64L-G16Re
 vA.03\HF=-77.8964874\S2=0.765857\S2-1=0.\S2A=0.750053\RMSD=5.210e-09\D
 ipole=0.0061975,-0.2561672,0.1790195\Quadrupole=-1.4724225,0.6506333,0
 .8217892,-0.4664932,-0.7237917,-0.3685418\PG=C01 [X(C2H3)]\\@


 THERE ONCE WAS A GIRL NAMED IRENE,
 WHO LIVED ON DISTILLED KEROSENE,
      BUT SHE STARTED ABSORBIN'
      A NEW HYDROCARBON,
 AND SINCE THEN HAS NEVER BENZENE.
 Job cpu time:       0 days  0 hours  0 minutes 10.6 seconds.
 Elapsed time:       0 days  0 hours  0 minutes 10.6 seconds.
 File lengths (MBytes):  RWF=      6 Int=      0 D2E=      0 Chk=      1 Scr=      1
 Normal termination of Gaussian 16 at Mon Jan  8 21:35:30 2024.
