opted geometry                                                          
SP        UB3LYP                                                      6-31G(d)            
Number of atoms                            I                5
Info1-9                                    I   N=           9
          14          14           0           0           0         111
           1          18        -502
Full Title                                 C   N=           2
opted geometry          
Route                                      C   N=           4
#p b3lyp/6-31G* em=gd3bj ExtraLinks=L608 nosymm 
Charge                                     I                0
Multiplicity                               I                2
Number of electrons                        I               15
Number of alpha electrons                  I                8
Number of beta electrons                   I                7
Number of basis functions                  I               36
Number of independent functions            I               36
Number of point charges in /Mol/           I                0
Number of translation vectors              I                0
Atomic numbers                             I   N=           5
           6           6           1           1           1
Nuclear charges                            R   N=           5
  6.00000000E+00  6.00000000E+00  1.00000000E+00  1.00000000E+00  1.00000000E+00
Current cartesian coordinates              R   N=          15
 -1.83725372E-01 -5.31232722E-01  1.67042441E+00  5.27409617E-01 -2.89522101E+00
  9.69249260E-01  1.26120231E+00 -3.31538686E+00 -9.17044366E-01  4.29731771E-01
 -4.48627679E+00  2.28043411E+00 -8.48989357E-01 -2.30075346E-01  3.61002662E+00
Number of symbols in /Mol/                 I                0
Force Field                                I                0
Atom Types                                 C   N=           5
                                                            
Int Atom Types                             I   N=           5
           0           0           0           0           0
MM charges                                 R   N=           5
  0.00000000E+00  0.00000000E+00  0.00000000E+00  0.00000000E+00  0.00000000E+00
Integer atomic weights                     I   N=           5
          12          12           1           1           1
Real atomic weights                        R   N=           5
  1.20000000E+01  1.20000000E+01  1.00782504E+00  1.00782504E+00  1.00782504E+00
Atom fragment info                         I   N=           5
           0           0           0           0           0
Atom residue num                           I   N=           5
           0           0           0           0           0
Nuclear spins                              I   N=           5
           0           0           1           1           1
Nuclear ZEff                               R   N=           5
 -3.60000000E+00 -3.60000000E+00 -1.00000000E+00 -1.00000000E+00 -1.00000000E+00
Nuclear ZNuc                               R   N=           5
  6.00000000E+00  6.00000000E+00  1.00000000E+00  1.00000000E+00  1.00000000E+00
Nuclear QMom                               R   N=           5
  0.00000000E+00  0.00000000E+00  0.00000000E+00  0.00000000E+00  0.00000000E+00
Nuclear GFac                               R   N=           5
  0.00000000E+00  0.00000000E+00  2.79284600E+00  2.79284600E+00  2.79284600E+00
MicOpt                                     I   N=           5
          -1          -1          -1          -1          -1
Number of residues                         I                0
Number of secondary structures             I                0
Number of contracted shells                I               14
Number of primitive shells                 I               34
Pure/Cartesian d shells                    I                1
Pure/Cartesian f shells                    I                0
Highest angular momentum                   I                2
Largest degree of contraction              I                6
Shell types                                I   N=          14
           0          -1          -1           2           0          -1
          -1           2           0           0           0           0
           0           0
Number of primitives per shell             I   N=          14
           6           3           1           1           6           3
           1           1           3           1           3           1
           3           1
Shell to atom map                          I   N=          14
           1           1           1           1           2           2
           2           2           3           3           4           4
           5           5
Primitive exponents                        R   N=          34
  3.04752488E+03  4.57369518E+02  1.03948685E+02  2.92101553E+01  9.28666296E+00
  3.16392696E+00  7.86827235E+00  1.88128854E+00  5.44249258E-01  1.68714478E-01
  8.00000000E-01  3.04752488E+03  4.57369518E+02  1.03948685E+02  2.92101553E+01
  9.28666296E+00  3.16392696E+00  7.86827235E+00  1.88128854E+00  5.44249258E-01
  1.68714478E-01  8.00000000E-01  1.87311370E+01  2.82539436E+00  6.40121692E-01
  1.61277759E-01  1.87311370E+01  2.82539436E+00  6.40121692E-01  1.61277759E-01
  1.87311370E+01  2.82539436E+00  6.40121692E-01  1.61277759E-01
Contraction coefficients                   R   N=          34
  1.83473713E-03  1.40373228E-02  6.88426223E-02  2.32184443E-01  4.67941348E-01
  3.62311985E-01 -1.19332420E-01 -1.60854152E-01  1.14345644E+00  1.00000000E+00
  1.00000000E+00  1.83473713E-03  1.40373228E-02  6.88426223E-02  2.32184443E-01
  4.67941348E-01  3.62311985E-01 -1.19332420E-01 -1.60854152E-01  1.14345644E+00
  1.00000000E+00  1.00000000E+00  3.34946043E-02  2.34726953E-01  8.13757326E-01
  1.00000000E+00  3.34946043E-02  2.34726953E-01  8.13757326E-01  1.00000000E+00
  3.34946043E-02  2.34726953E-01  8.13757326E-01  1.00000000E+00
P(S=P) Contraction coefficients            R   N=          34
  0.00000000E+00  0.00000000E+00  0.00000000E+00  0.00000000E+00  0.00000000E+00
  0.00000000E+00  6.89990666E-02  3.16423961E-01  7.44308291E-01  1.00000000E+00
  0.00000000E+00  0.00000000E+00  0.00000000E+00  0.00000000E+00  0.00000000E+00
  0.00000000E+00  0.00000000E+00  6.89990666E-02  3.16423961E-01  7.44308291E-01
  1.00000000E+00  0.00000000E+00  0.00000000E+00  0.00000000E+00  0.00000000E+00
  0.00000000E+00  0.00000000E+00  0.00000000E+00  0.00000000E+00  0.00000000E+00
  0.00000000E+00  0.00000000E+00  0.00000000E+00  0.00000000E+00
Coordinates of each shell                  R   N=          42
 -1.83725372E-01 -5.31232722E-01  1.67042441E+00 -1.83725372E-01 -5.31232722E-01
  1.67042441E+00 -1.83725372E-01 -5.31232722E-01  1.67042441E+00 -1.83725372E-01
 -5.31232722E-01  1.67042441E+00  5.27409617E-01 -2.89522101E+00  9.69249260E-01
  5.27409617E-01 -2.89522101E+00  9.69249260E-01  5.27409617E-01 -2.89522101E+00
  9.69249260E-01  5.27409617E-01 -2.89522101E+00  9.69249260E-01  1.26120231E+00
 -3.31538686E+00 -9.17044366E-01  1.26120231E+00 -3.31538686E+00 -9.17044366E-01
  4.29731771E-01 -4.48627679E+00  2.28043411E+00  4.29731771E-01 -4.48627679E+00
  2.28043411E+00 -8.48989357E-01 -2.30075346E-01  3.61002662E+00 -8.48989357E-01
 -2.30075346E-01  3.61002662E+00
Num ILSW                                   I              100
ILSW                                       I   N=         100
           1           1           0           0           2           0
           0           0           0           0         402          -1
           5           0           0           0           0           0
           0           0           0           0           0           0
           1           1           0           0           0           0
           0           0      100000           0          -1           0
           0           0           0           0           0           0
           0           0           0           1           0           0
           0 -2000000000           1           0           0           0
           0           0         141          52           0           0
           0           0           5           0           0           0
           0           0           0           5           0           1
           0           0           0           0           0           0
           0           0           0           0           0           0
           0           0           0           0           0           0
           0           0           0           0           0           0
           0           0           0           0
Num RLSW                                   I               52
RLSW                                       R   N=          52
  8.00000000E-01  7.20000000E-01  1.00000000E+00  8.10000000E-01  2.00000000E-01
  0.00000000E+00  0.00000000E+00  1.00000000E+00  0.00000000E+00  0.00000000E+00
  0.00000000E+00  0.00000000E+00  1.00000000E+00  0.00000000E+00  0.00000000E+00
  0.00000000E+00  0.00000000E+00  1.00000000E+00  0.00000000E+00  0.00000000E+00
  0.00000000E+00  0.00000000E+00  1.00000000E+00  0.00000000E+00  0.00000000E+00
  0.00000000E+00  0.00000000E+00  1.00000000E+00  0.00000000E+00  0.00000000E+00
  0.00000000E+00  0.00000000E+00  1.00000000E+00  0.00000000E+00  0.00000000E+00
  0.00000000E+00  0.00000000E+00  0.00000000E+00  1.00000000E+00  1.00000000E+00
  0.00000000E+00  1.00000000E+00  0.00000000E+00  0.00000000E+00  0.00000000E+00
  0.00000000E+00  0.00000000E+00  0.00000000E+00  0.00000000E+00  0.00000000E+00
  0.00000000E+00  0.00000000E+00
MxBond                                     I                3
NBond                                      I   N=           5
           2           3           1           1           1
IBond                                      I   N=          15
           2           5           0           1           3           4
           2           0           0           2           0           0
           1           0           0
RBond                                      R   N=          15
  2.00000000E+00  1.00000000E+00  0.00000000E+00  2.00000000E+00  1.00000000E+00
  1.00000000E+00  1.00000000E+00  0.00000000E+00  0.00000000E+00  1.00000000E+00
  0.00000000E+00  0.00000000E+00  1.00000000E+00  0.00000000E+00  0.00000000E+00
Virial Ratio                               R      2.011507091620198E+00
SCF Energy                                 R     -7.789648739067238E+01
Total Energy                               R     -7.789648739067238E+01
S**2                                       R      7.658573123612582E-01
S**2 after annihilation                    R      7.500529504394933E-01
RMS Density                                R      5.210030755912725E-09
Job Status                                 I                1
Nuclear derivative order                   I                0
External E-field                           R   N=          35
  0.00000000E+00  0.00000000E+00  0.00000000E+00  0.00000000E+00  0.00000000E+00
  0.00000000E+00  0.00000000E+00  0.00000000E+00  0.00000000E+00  0.00000000E+00
  0.00000000E+00  0.00000000E+00  0.00000000E+00  0.00000000E+00  0.00000000E+00
  0.00000000E+00  0.00000000E+00  0.00000000E+00  0.00000000E+00  0.00000000E+00
  0.00000000E+00  0.00000000E+00  0.00000000E+00  0.00000000E+00  0.00000000E+00
  0.00000000E+00  0.00000000E+00  0.00000000E+00  0.00000000E+00  0.00000000E+00
  0.00000000E+00  0.00000000E+00  0.00000000E+00  0.00000000E+00  0.00000000E+00
IOpCl                                      I                1
IROHF                                      I                0
Alpha Orbital Energies                     R   N=          36
 -1.02227897E+01 -1.01963089E+01 -7.56151515E-01 -5.72144910E-01 -4.56737657E-01
 -4.06394368E-01 -2.73025261E-01 -2.66024797E-01  5.35068964E-03  1.15753486E-01
  1.40444254E-01  2.04676263E-01  3.18502637E-01  4.88622574E-01  5.44041850E-01
  5.58934927E-01  6.02993500E-01  6.27965054E-01  6.59661233E-01  8.24905355E-01
  8.51152591E-01  9.20752415E-01  9.44333594E-01  1.09383866E+00  1.44444307E+00
  1.54336303E+00  1.73837190E+00  1.81416449E+00  1.90708736E+00  2.05064500E+00
  2.19940604E+00  2.34846142E+00  2.55665524E+00  2.66898258E+00  4.02081202E+00
  4.20705078E+00
Beta Orbital Energies                      R   N=          36
 -1.02065643E+01 -1.01978590E+01 -7.40060534E-01 -5.52201125E-01 -4.40858744E-01
 -3.93077467E-01 -2.63838025E-01 -9.23712651E-02  2.01863082E-02  1.23914557E-01
  1.45560514E-01  2.13152368E-01  3.36216608E-01  5.00423182E-01  5.48454683E-01
  5.94239547E-01  6.36065044E-01  6.41568223E-01  6.70603795E-01  8.33354639E-01
  8.66495908E-01  9.25801686E-01  9.64506962E-01  1.10597682E+00  1.45830680E+00
  1.56718071E+00  1.80050795E+00  1.84534585E+00  1.91860953E+00  2.07581224E+00
  2.21466039E+00  2.36529204E+00  2.58312814E+00  2.69238887E+00  4.04727474E+00
  4.21947648E+00
Alpha MO coefficients                      R   N=        1296
  9.92478874E-01  4.96978223E-02 -2.43191881E-05 -1.51091074E-04  2.01644697E-04
 -1.17239289E-02 -1.21704850E-04  2.12646065E-03 -1.03395778E-03 -1.00987963E-02
 -9.67274256E-03 -9.83893120E-03 -7.15036713E-05 -9.19210247E-05 -1.06174311E-04
  1.37357166E-02  1.61325276E-04  1.19826154E-04 -3.32184976E-04 -1.55929402E-04
  4.53780052E-03 -8.00581978E-04  1.72801057E-03  1.37641514E-03 -3.02708291E-04
 -3.87920097E-04 -3.19795867E-04  2.45972011E-05  1.06441003E-05 -4.14064871E-06
 -4.28205932E-05  5.06581729E-04 -1.71110932E-04 -2.31400839E-04 -2.35956946E-04
  2.55475097E-03 -1.41741216E-02 -1.19273227E-03 -1.19273580E-04  3.93639796E-04
  1.22151177E-04  4.41401481E-03  5.00425336E-04 -1.74499310E-03 -4.20936392E-04
 -2.19349914E-06 -2.02464003E-04 -6.16317159E-05  6.04989272E-05  3.76630092E-05
 -3.41908736E-05  9.92685526E-01  4.87461476E-02 -3.05822322E-06 -1.16781063E-05
  2.18951595E-05 -1.27952224E-02  2.34891652E-04 -7.44182512E-04 -3.27259900E-04
 -9.61609099E-03 -9.08375501E-03 -9.31676419E-03 -1.66017928E-04 -1.56944851E-04
  5.69546735E-05 -3.56528527E-04  2.14274158E-03 -3.34691681E-04  2.22881942E-03
 -8.33863469E-05 -5.54352777E-05 -1.55628483E-01  3.13074902E-01  2.62505321E-02
 -1.21044305E-01 -2.15396339E-03  2.41773003E-01  1.79430884E-03 -1.62773569E-02
  5.58146036E-03 -1.45538112E-02  4.25388684E-03 -2.04034910E-03 -5.34598038E-03
 -5.79635302E-03  1.13343325E-03 -1.63334566E-01  3.18556164E-01 -2.87976658E-02
  8.71996674E-02  3.59255856E-02  2.32601705E-01 -1.46039826E-03 -2.13171045E-03
  6.58422276E-03 -1.51788305E-02  6.18250058E-03  3.41039690E-05 -6.51552098E-03
 -7.54477153E-03  1.82369145E-03  8.56148684E-02  2.04435427E-02  9.36709952E-02
  1.91790994E-02  9.30876086E-02  2.04624469E-02 -1.28980090E-01  2.69325251E-01
 -5.58783249E-02  7.63682646E-02  1.28554293E-01  2.66404399E-01 -1.76693725E-02
  3.18315721E-02  3.61276984E-02 -1.06247401E-02 -1.15918929E-02  8.86297213E-03
  1.26250035E-03 -6.85843511E-03 -3.83901088E-03  1.14088519E-01 -2.30422516E-01
 -6.58946942E-02  1.81191786E-01  8.35880167E-02 -2.35037331E-01 -2.36237435E-02
  6.21138401E-02  3.14943450E-02  9.94808889E-03  4.87818635E-03 -1.01243212E-02
 -1.53352230E-03  6.42588810E-03  1.02022858E-02 -1.63555424E-01 -7.59813643E-02
 -1.45651812E-01 -7.26173631E-02  1.87053411E-01  9.51523734E-02 -3.44004100E-02
  7.89830410E-02  9.88711961E-02 -5.87280981E-02 -2.70646072E-01  6.98051038E-02
  2.66947634E-02  1.38444554E-02 -9.11391452E-02 -1.11265220E-03 -1.68637762E-03
 -8.97175523E-03 -2.22038196E-03  1.16980785E-03  7.07476208E-03 -3.94977370E-04
  9.99224833E-04  2.34244676E-02  3.02584329E-01 -2.59750701E-01  1.48347511E-02
  8.38084855E-03  1.12383112E-01 -9.58830647E-02  1.44047810E-03 -4.18023028E-03
 -3.98720843E-03 -3.29073751E-03 -1.40220740E-03  1.35279399E-02  1.04214549E-01
  7.56868376E-02 -2.45247659E-01 -1.89276418E-01 -1.36021913E-01 -1.14318134E-01
 -1.20306041E-02  2.19738322E-02 -1.08321555E-01  3.21012728E-01  1.47813321E-01
  8.23740180E-02 -3.17343435E-02  1.15279337E-01  3.21064862E-02  1.08811067E-03
 -1.52409958E-02  1.80906037E-02  1.72584139E-03 -7.90134315E-03  4.91318687E-03
  1.85509664E-02 -4.08278144E-02  1.50231355E-01 -2.06699417E-01 -3.13259945E-01
 -3.60109379E-02  5.69091654E-02 -7.80948338E-02 -1.17953442E-01  3.47457507E-03
 -8.90196642E-03  1.75489238E-02  4.95375925E-04 -7.68913771E-03  6.05112170E-03
  2.32774740E-01  2.03174559E-01 -5.16702065E-02 -4.17186921E-02  1.72423152E-01
  1.59479639E-01  7.58131033E-03 -1.56119614E-02  4.02939029E-01  4.03071465E-02
  1.62232769E-01 -3.66646342E-02  2.71810529E-01  2.52712494E-02  1.07104525E-01
  6.93129049E-03 -4.62344931E-03 -1.54043059E-04 -1.39231918E-02 -1.66551719E-03
 -4.33774787E-03 -1.82297756E-03  4.67469387E-03  3.50111218E-01  8.95450995E-02
  1.10800118E-01 -7.11459954E-04  2.50783998E-01  5.65432913E-02  8.11073988E-02
 -7.40671235E-03  3.15307040E-03  3.61225050E-03  1.26522347E-02  2.68645717E-03
  7.48205918E-03  8.97247486E-03  9.85057750E-03 -1.38020251E-02 -1.87995315E-02
  1.28789368E-02  1.52805271E-02 -7.22399137E-02  1.50573502E-01  7.38537834E-02
  3.99921980E-01 -3.37950134E-01  3.47619747E-01  3.81078544E-02  2.99692019E-01
 -2.07717449E-01 -2.76994319E-03 -3.73679253E-03 -1.45472808E-02  2.34121740E-03
  6.52194929E-03 -9.70763645E-03  2.26489232E-02 -5.63672635E-02  3.52161349E-02
 -1.40642734E-01  1.00393661E-01 -1.15775842E-02  1.98999038E-02 -2.99527777E-02
  4.55027590E-02 -2.67516741E-03  1.95429322E-02 -1.04747063E-02  4.20121331E-03
  9.52007131E-03 -2.13370580E-02 -1.08036877E-01 -1.28728201E-01  1.51896077E-01
  2.06145231E-01 -1.42453333E-01 -1.74626342E-01 -1.35696794E-03  2.82398682E-03
 -4.01386641E-01 -8.16469676E-02 -1.26760990E-01  7.02675359E-03 -5.39056749E-01
 -1.06895091E-01 -1.68855162E-01  1.17062722E-02 -7.19701653E-03 -4.83770765E-03
 -1.92111820E-02 -5.93786290E-03 -8.77875268E-03  1.54763679E-03 -3.17567964E-03
  4.05317091E-01  8.38139146E-02  1.36788368E-01 -9.06194652E-03  5.77332235E-01
  1.22036209E-01  1.97035166E-01  1.07645816E-02 -7.44603979E-03 -2.95437169E-03
 -1.97573988E-02 -3.67221277E-03 -7.70595547E-03  3.63495619E-03  1.11143812E-02
  4.71824798E-04  7.79493149E-04 -3.49724592E-03 -1.03101590E-02  5.88670988E-02
 -9.96130857E-02  8.34204621E-02 -6.99733257E-02 -2.25210537E-01 -1.00265874E+00
  2.02059415E-01 -1.20009338E-01 -5.75840273E-01  2.79572768E-03 -8.95213891E-03
  1.41294595E-02  1.12989551E-03 -5.57333760E-03  3.74882482E-03  7.61537282E-02
 -1.22047523E-01 -9.54543894E-03  2.07162874E-01 -1.01081347E-01 -1.15335452E+00
 -9.15154374E-02  6.08492699E-01 -1.03808900E-01  2.24792187E-03  6.14781765E-03
  2.96208306E-03  4.27755615E-03  3.63257690E-03 -1.49038291E-02 -2.58887284E-05
  4.28845916E-01  7.96297070E-02  1.33682681E+00  7.82102237E-02  1.31908297E+00
  6.58571152E-02 -8.88114239E-02  4.07327277E-02  3.00590893E-02 -1.62367148E-01
 -9.54915009E-01  3.68979216E-02  1.50250367E-01 -2.58394682E-01  9.25327394E-03
  1.11736948E-04  7.78114874E-03 -4.29490956E-03 -3.43276427E-03  1.70049695E-02
 -1.14341382E-01  1.70700525E-01  8.69162316E-02 -7.15536599E-02 -1.98262261E-01
  1.76106971E+00  2.09669499E-01 -1.11926015E-01 -5.02701844E-01 -9.75647888E-03
  1.28499179E-03 -1.15814814E-02  9.28300159E-04  3.53013499E-03 -1.14186631E-02
 -1.01057978E-01 -1.66374293E+00 -1.46367553E-02 -4.67223940E-01  8.37926884E-02
  9.68548441E-01 -6.50844455E-02  1.06155364E-01 -4.84523256E-02 -1.96512041E-02
  1.67967043E-01  1.36236671E+00 -1.74466481E-01 -4.73206263E-01  8.46660006E-01
 -3.43186081E-03 -1.25189512E-02  1.24397300E-02 -4.16702090E-03 -1.03612915E-02
  1.62093545E-02  3.19537733E-02 -1.34238748E-02  9.02018320E-02  1.36482851E-01
 -3.53671434E-01 -7.43244227E-01  4.65622129E-01  1.23525323E-01 -1.48342486E+00
  5.97166644E-03  2.25722447E-03 -6.98468761E-04 -1.62471909E-03  7.77242181E-04
  7.99890304E-03 -3.75359983E-03 -1.38000221E+00  2.05367502E-02  1.60497145E+00
  3.00342730E-02 -1.27469861E+00 -8.63212431E-02  1.10044555E-01  9.97717495E-02
 -1.38863823E-01 -2.28004953E-01  2.76290709E+00  7.28212992E-01 -2.09678395E+00
 -9.41622235E-01 -2.86773883E-03 -1.41519952E-02  1.33231340E-02  6.07312855E-03
 -3.48927577E-03 -1.12417364E-02  7.70590151E-02 -5.12218755E-02  3.84431431E-02
 -2.02696194E-01  1.37354445E-02 -2.54383831E+00  6.62021358E-01 -2.48863790E+00
 -4.53183254E-01  5.84977029E-03  2.88575178E-02 -2.68378176E-02 -7.47061122E-03
  1.21843500E-02  6.66489269E-03 -9.21671859E-02 -2.19093610E-01 -5.19378861E-02
 -7.64713442E-01  7.03841094E-02  6.75269009E-01  2.93975965E-02  1.45313555E-01
  1.48481921E-01 -5.60586735E-01 -1.01388108E-01  1.43340394E-01 -3.00726780E-01
  9.49396720E-01  3.28196282E-01 -4.47154663E-03  6.45741847E-02 -2.59114269E-02
 -2.86913651E-02 -1.07936367E-03  3.38523186E-02  1.65441175E-02  1.86889313E-01
 -1.55229776E-01  5.10501036E-01  1.60421300E-01  3.55386893E-01  2.96282174E-01
 -8.89726463E-01 -3.47292369E-01  2.07622068E-04  6.04048070E-02 -2.34278298E-02
 -2.91935291E-02 -1.53813178E-03  4.20987087E-02 -6.13318050E-02 -2.09649780E-01
 -7.51893986E-02 -7.14101645E-02 -7.66531749E-02 -9.32157314E-02  1.69110696E-05
 -3.17942744E-03  7.20773020E-01  1.51003293E-01  2.23645664E-01  2.73696078E-04
 -6.87412427E-01 -1.43892862E-01 -2.11118845E-01  2.42090957E-02 -1.55644226E-02
 -9.57025181E-03 -4.04268994E-02 -1.11029047E-02 -1.78528303E-02  2.68462749E-04
 -4.53271620E-03  6.42475191E-01  1.31161352E-01  2.13198441E-01  2.05305787E-03
 -5.34389754E-01 -1.05740898E-01 -1.73225191E-01 -2.35855335E-02  1.51265928E-02
  7.54521338E-03  4.21405006E-02  8.64846541E-03  1.72721349E-02  3.11474248E-03
  5.88515996E-03 -1.96623321E-03 -3.78944455E-04 -2.88987710E-03  2.82068597E-03
 -1.63974997E-02  3.20786517E-01  1.20762673E-01  4.93216647E-01 -6.83618708E-01
 -3.26142233E-01 -2.99552688E-01 -1.85847115E-01  1.05504970E+00  2.47468431E-02
  7.12975736E-02 -2.81928535E-02 -9.84932231E-03  1.97998402E-02  2.77314168E-03
 -5.97079743E-03  1.05278649E-01 -1.39998358E-02  2.17499247E-01 -1.37477642E-01
  1.14248590E-01 -1.00034342E-01 -3.91042655E-02  3.56054478E-01  9.49917633E-03
 -2.10294514E-02  2.20994947E-02  1.20853288E-03 -1.05445125E-02  1.58179075E-02
  2.62016918E-01  1.51308999E-01 -1.93952826E-01 -6.27363895E-02 -2.81304018E-01
 -2.33542802E-01 -3.26957564E-02 -6.25568743E-01  1.24113286E-02 -3.24952970E-01
  1.57075151E-01  1.14577363E+00  6.74856571E-02  1.23249420E-01 -2.52982332E-01
  1.07434564E-04 -6.58653438E-02 -1.10374504E-01  4.39720881E-02  6.33925201E-02
 -6.93510000E-02  3.18759709E-03 -4.44150105E-01  1.61085068E-01 -1.55389064E-01
 -3.91527027E-01  3.79789863E-01 -1.49187395E-01 -4.59677442E-01  7.26524962E-01
  1.53220202E-02 -6.77079616E-02 -2.18649115E-02 -1.47276297E-02 -9.74328968E-03
  1.02951783E-01  9.87075689E-02 -3.72621471E-02 -4.84408305E-01 -1.65985627E-01
 -5.26038718E-01  1.68919153E-01 -1.74777428E-04 -3.04305239E-03  6.77193815E-01
  1.26912292E-01  2.21381765E-01  3.60967969E-03 -1.02302240E+00 -2.03702614E-01
 -3.42278484E-01 -8.48961068E-03  4.86983045E-03  2.03526124E-03  1.95592235E-02
  6.53437610E-04  6.63446840E-03  4.35350338E-04  1.60437462E-03 -7.64324566E-01
 -1.63909545E-01 -2.56782294E-01 -3.54606520E-03  1.09104926E+00  2.23937011E-01
  3.61548882E-01 -4.51321077E-03  4.97723476E-03  9.41503259E-04  7.49161586E-03
  1.34597143E-03  3.40853978E-03 -7.22423963E-04 -2.78351634E-03  3.15933602E-03
 -3.54152715E-03  2.33845877E-03  5.02589351E-03  4.33790527E-02 -4.03631593E-01
 -1.47277336E-01  5.34110810E-01  1.30941965E-01  6.16813108E-01  1.11695666E-01
 -5.15039993E-01 -6.27317455E-02 -1.97932312E-02  5.47262104E-02 -3.31569072E-02
 -3.97473754E-02 -1.02385004E-02  5.83746394E-02 -8.92343552E-02 -3.19912661E-01
 -1.72121088E-01  4.57433915E-01  2.21077139E-01  8.52024841E-01  3.31938571E-01
 -7.64442762E-01 -4.70269777E-01  6.42502072E-02 -1.36239786E-01 -1.07945935E-01
  6.11250813E-02  8.38821008E-02 -1.59090189E-02 -5.90904354E-01 -2.09588880E-01
 -4.59521001E-01 -1.08251320E-01  7.81641244E-02 -5.75233395E-02  2.93056093E-02
  3.79036093E-01 -2.14275898E-01  2.20043978E-01  5.40666625E-01 -5.44982102E-01
  7.65470564E-01 -4.09212262E-01 -2.13924869E+00 -4.09675787E-02  1.04186250E-01
  5.05741824E-02 -3.79921520E-02 -3.97105838E-02  5.52007827E-04 -2.90325766E-03
  4.78940443E-01  1.14458530E-01  5.77242852E-01 -6.93944081E-01 -1.23980013E+00
 -4.42651122E-01 -1.60339646E+00  2.32125789E+00  2.99661282E-03 -2.31871449E-02
  7.51765109E-02  9.52500685E-03 -2.82925738E-02 -1.64013844E-02  8.00859618E-02
  1.26500160E+00  1.02743765E-01 -1.47889774E+00  6.28751722E-02  1.41126958E+00
 -3.51458153E-03  4.77183668E-01 -1.88535480E-01  2.18656070E-01  4.64125593E-01
 -6.26253383E-01  4.03328518E-01 -5.94680215E-01 -9.14090597E-01  7.32125468E-03
  1.52448954E-01 -6.87620586E-02 -7.78426382E-03  4.73903760E-02 -7.14782432E-02
  4.78494388E-03  3.20404698E-01 -2.09835864E-01 -6.48192922E-02  6.63990516E-01
 -9.02280696E-01  4.05860378E-01 -1.01565785E-01 -1.14045143E+00  1.70123068E-02
 -8.78234715E-02  1.12493623E-01 -1.46041956E-02 -6.68698782E-02  1.03995599E-01
  5.34376969E-01 -1.20198036E+00 -3.91508694E-01  1.04238702E+00 -4.49190541E-01
  1.42518608E+00 -8.44042177E-03 -5.54622375E-01 -3.69727469E-02  1.33153498E-01
  3.12656634E-02  1.41133793E+00  1.22611669E-01 -5.55080532E-01 -3.00295769E-02
  2.94762855E-04 -2.13990175E-02 -4.48194126E-02  2.78932410E-03  1.63336229E-02
  1.41078530E-02  3.00626089E-02 -1.01003550E+00 -1.85241212E-01  5.73508271E-01
  1.84701742E-01  1.51330520E+00  4.13910155E-01 -1.17360994E+00 -4.90753785E-01
 -1.01381140E-01 -1.10687494E-01  6.08524951E-02  2.80426360E-02 -4.85683124E-02
 -8.90583418E-02  6.12139994E-01 -1.41787139E+00  6.66248224E-01 -1.32025482E+00
 -5.27047395E-02 -8.09418680E-02  3.67234491E-02 -6.74707269E-01  9.49737295E-02
 -1.23755548E-02 -2.92737592E-01  1.51962666E+00  1.27610525E-01 -1.79584090E-01
 -2.67591289E-01 -1.38083008E-01 -1.58496188E-02  9.42391023E-02 -1.09894435E-02
 -7.75372237E-02 -6.38495286E-02 -3.21759408E-03  3.22727200E-01 -6.36522213E-02
  2.68968451E-02  1.78538650E-01 -1.08077086E+00 -3.45953528E-02 -5.08234431E-01
  4.14575393E-01  2.47867365E-02 -7.87138932E-02  9.97907457E-02 -4.91268179E-03
 -5.46956750E-02  7.01862926E-02  5.60511496E-01 -1.35870098E-01 -5.24622925E-01
  3.20773418E-01  9.07971065E-01 -9.47655751E-01  4.11862772E-02  1.39493702E+00
  4.43222481E-02 -2.19402426E-01  5.99088652E-03 -5.14012273E+00 -3.29477906E-01
  2.00715164E+00 -2.77966227E-01 -5.74835695E-03  8.87543853E-03  1.77430109E-01
  1.75483742E-02 -5.32349478E-02 -7.06446349E-02 -3.64216594E-02 -1.48620488E+00
  5.33733200E-02 -1.29312792E-01 -8.26762930E-02  5.36641971E+00 -6.55502990E-01
  1.34527546E+00  1.18584553E+00 -2.32849504E-02 -5.39456203E-02 -1.14592834E-01
 -2.55858209E-02  1.41808082E-02  9.42015378E-02  9.30905118E-02 -2.17168045E-01
 -3.00091952E-01 -6.12360666E-01  3.43454028E-01  5.63362667E-01 -3.61863454E-04
 -1.82955935E-03  1.42643121E-01  2.95870365E-02  4.83202427E-02  8.60230776E-03
 -2.40166932E-02 -9.13898263E-03 -3.13941044E-03 -2.74718024E-01  1.88384356E-01
  8.55454596E-02  5.05972227E-01  1.15570547E-01  2.16587802E-01  4.93317726E-05
  3.14329802E-03  1.51143219E-01  2.91667750E-02  5.02003227E-02 -1.16095507E-02
 -2.61241771E-02 -3.22113998E-03 -1.64695625E-02  2.82296291E-01 -1.85084089E-01
 -9.74750955E-02 -4.97137073E-01 -1.01280438E-01 -2.05626131E-01 -3.06081207E-03
  1.09464718E-03  9.79272959E-04  5.70070185E-03 -6.19838991E-03  6.91775705E-04
 -2.52723236E-04 -6.67061219E-03  3.49911189E-03  1.23731358E-03 -4.27282305E-03
  2.07479379E-02 -9.75805903E-03 -5.70509734E-03  1.15511682E-02 -2.58506722E-01
 -7.04016093E-02  3.28953411E-01 -2.50231710E-01  5.53919607E-01  3.87795074E-02
  2.76836277E-04  4.45042096E-03 -1.06997748E-05  9.67874700E-04 -4.55775972E-03
 -1.61853195E-02  5.27125229E-03  3.88971047E-03 -9.55348857E-03 -2.49776456E-01
 -7.96260361E-02  3.29599741E-01 -2.39179376E-01  5.13527993E-01  5.40049358E-02
 -5.05725411E-03  3.24434773E-03  8.65873376E-03  3.52944936E-03 -1.10773333E-03
 -1.22649915E-02  6.65754928E-03  1.71775186E-01 -4.16460097E-02 -1.87029563E-02
  1.35793616E-01 -4.78049403E-01  2.41476913E-01  8.63147050E-02 -8.01564532E-01
  4.80936528E-01 -3.85710416E-01 -1.07742316E-01 -4.70869176E-02  1.70968413E-01
  6.93393240E-01  1.14629036E-02  9.14258831E-02 -2.40418004E-02 -1.37452900E-02
  7.59526322E-02 -3.06026319E-01 -2.94025224E-01 -2.70576644E-01  1.04494714E+00
  1.83507585E-01  1.30608866E-01 -3.12223681E-01  8.07941973E-02  1.71639205E-01
 -8.41086236E-02  5.72710725E-01  3.70666270E-01 -2.72615780E-01 -2.59117193E-01
  1.25471832E-01  4.43400829E-01  5.53984284E-04  1.77168798E-02 -6.01802794E-03
 -1.80174948E-03  1.52222206E-02 -5.03600247E-02  3.11550659E-02  1.50813584E-02
 -8.72437619E-02  2.98369297E-01  3.44412272E-02 -3.34784089E-01  2.51326508E-01
 -5.62884024E-01  2.44151523E-02  6.04311593E-04  2.96815490E-03 -2.65925264E-03
 -2.13357035E-03  1.00387064E-02 -1.08238251E-02 -3.67094069E-02 -4.07799595E-02
  1.25724583E-01 -2.73845855E-01 -7.00114119E-02  3.43940440E-01 -2.69181681E-01
  5.95577112E-01  3.52156453E-02  6.44535717E-02  3.86302383E-02 -4.56315205E-02
 -3.80315741E-02  5.81675281E-03  4.78446416E-02  2.93578189E-02  1.54618169E-01
  5.24895726E-02 -5.63780240E-02 -1.30437808E-01 -4.96806759E-01  3.57157303E-02
  6.72916698E-02 -1.67451585E-01  3.96860174E-01  1.20876932E-01 -4.28140949E-01
  1.96872785E-01  3.86973323E-01 -2.79140689E-01  2.56063817E-02  1.95810204E-01
  2.37448169E-03  1.48321740E-01 -1.01698167E-01 -4.32792430E-01 -6.13100927E-03
  2.24979644E-01 -1.20943614E-01  5.32936494E-01 -3.55892612E-01 -9.93737723E-02
  8.62912189E-02  1.95798450E-01  4.29704260E-01 -4.18575041E-02  1.31305904E-01
  5.67012782E-01  8.37704556E-02  5.34393563E-01  5.36329963E-02 -2.07562120E-02