 Entering Gaussian System, Link 0=g16
 Initial command:
 /home/kangmg/compchem/gaussian/g16/l1.exe "/home/kangmg/compchem/gaussian/scratch/Gau-32799.inp" -scrdir="/home/kangmg/compchem/gaussian/scratch/"
 Entering Link 1 = /home/kangmg/compchem/gaussian/g16/l1.exe PID=     32801.
  
 Copyright (c) 1988,1990,1992,1993,1995,1998,2003,2009,2016,
            Gaussian, Inc.  All Rights Reserved.
  
 This is part of the Gaussian(R) 16 program.  It is based on
 the Gaussian(R) 09 system (copyright 2009, Gaussian, Inc.),
 the Gaussian(R) 03 system (copyright 2003, Gaussian, Inc.),
 the Gaussian(R) 98 system (copyright 1998, Gaussian, Inc.),
 the Gaussian(R) 94 system (copyright 1995, Gaussian, Inc.),
 the Gaussian 92(TM) system (copyright 1992, Gaussian, Inc.),
 the Gaussian 90(TM) system (copyright 1990, Gaussian, Inc.),
 the Gaussian 88(TM) system (copyright 1988, Gaussian, Inc.),
 the Gaussian 86(TM) system (copyright 1986, Carnegie Mellon
 University), and the Gaussian 82(TM) system (copyright 1983,
 Carnegie Mellon University). Gaussian is a federally registered
 trademark of Gaussian, Inc.
  
 This software contains proprietary and confidential information,
 including trade secrets, belonging to Gaussian, Inc.
  
 This software is provided under written license and may be
 used, copied, transmitted, or stored only in accord with that
 written license.
  
 The following legend is applicable only to US Government
 contracts under FAR:
  
                    RESTRICTED RIGHTS LEGEND
  
 Use, reproduction and disclosure by the US Government is
 subject to restrictions as set forth in subparagraphs (a)
 and (c) of the Commercial Computer Software - Restricted
 Rights clause in FAR 52.227-19.
  
 Gaussian, Inc.
 340 Quinnipiac St., Bldg. 40, Wallingford CT 06492
  
  
 ---------------------------------------------------------------
 Warning -- This program may not be used in any manner that
 competes with the business of Gaussian, Inc. or will provide
 assistance to any competitor of Gaussian, Inc.  The licensee
 of this program is prohibited from giving any competitor of
 Gaussian, Inc. access to this program.  By using this program,
 the user acknowledges that Gaussian, Inc. is engaged in the
 business of creating and licensing software in the field of
 computational chemistry and represents and warrants to the
 licensee that it is not a competitor of Gaussian, Inc. and that
 it will not use this program in any manner prohibited above.
 ---------------------------------------------------------------
  

 Cite this work as:
 Gaussian 16, Revision A.03,
 M. J. Frisch, G. W. Trucks, H. B. Schlegel, G. E. Scuseria, 
 M. A. Robb, J. R. Cheeseman, G. Scalmani, V. Barone, 
 G. A. Petersson, H. Nakatsuji, X. Li, M. Caricato, A. V. Marenich, 
 J. Bloino, B. G. Janesko, R. Gomperts, B. Mennucci, H. P. Hratchian, 
 J. V. Ortiz, A. F. Izmaylov, J. L. Sonnenberg, D. Williams-Young, 
 F. Ding, F. Lipparini, F. Egidi, J. Goings, B. Peng, A. Petrone, 
 T. Henderson, D. Ranasinghe, V. G. Zakrzewski, J. Gao, N. Rega, 
 G. Zheng, W. Liang, M. Hada, M. Ehara, K. Toyota, R. Fukuda, 
 J. Hasegawa, M. Ishida, T. Nakajima, Y. Honda, O. Kitao, H. Nakai, 
 T. Vreven, K. Throssell, J. A. Montgomery, Jr., J. E. Peralta, 
 F. Ogliaro, M. J. Bearpark, J. J. Heyd, E. N. Brothers, K. N. Kudin, 
 V. N. Staroverov, T. A. Keith, R. Kobayashi, J. Normand, 
 K. Raghavachari, A. P. Rendell, J. C. Burant, S. S. Iyengar, 
 J. Tomasi, M. Cossi, J. M. Millam, M. Klene, C. Adamo, R. Cammi, 
 J. W. Ochterski, R. L. Martin, K. Morokuma, O. Farkas, 
 J. B. Foresman, and D. J. Fox, Gaussian, Inc., Wallingford CT, 2016.
 
 ******************************************
 Gaussian 16:  ES64L-G16RevA.03 25-Dec-2016
                 8-Jan-2024 
 ******************************************
 %chk=3_fragment2.chk
 -----------------------------------------------
 #p b3lyp/6-31G* em=gd3bj ExtraLinks=L608 nosymm
 -----------------------------------------------
 1/38=1,172=1/1;
 2/12=2,15=1,17=6,18=5,40=1/2;
 3/5=1,6=6,7=1,11=2,25=1,30=1,74=-5,124=41/1,2,3;
 4//1;
 5/5=2,38=5/2;
 6/7=2,8=2,9=2,10=2,28=1/1,8;
 99/5=1,9=1/99;
 Leave Link    1 at Mon Jan  8 21:35:30 2024, MaxMem=           0 cpu:               0.0 elap:               0.0
 (Enter /home/kangmg/compchem/gaussian/g16/l101.exe)
 --------------
 opted geometry
 --------------
 Symbolic Z-matrix:
 Charge =  0 Multiplicity = 2
 C                    -0.09722   0.92749  -1.34855 
 C                    -0.09722   0.92749   0.00947 
 H                    -0.08276   1.89044   0.53421 
 H                    -0.14095   0.00434  -1.93375 
 H                    -0.07208   1.85787  -1.92017 
 
 ITRead=  0  0  0  0  0
 MicOpt= -1 -1 -1 -1 -1
 NAtoms=      5 NQM=        5 NQMF=       0 NMMI=      0 NMMIF=      0
                NMic=       0 NMicF=      0.
                    Isotopes and Nuclear Properties:
 (Nuclear quadrupole moments (NQMom) in fm**2, nuclear magnetic moments (NMagM)
  in nuclear magnetons)

  Atom         1           2           3           4           5
 IAtWgt=          12          12           1           1           1
 AtmWgt=  12.0000000  12.0000000   1.0078250   1.0078250   1.0078250
 NucSpn=           0           0           1           1           1
 AtZEff=  -0.0000000  -0.0000000  -0.0000000  -0.0000000  -0.0000000
 NQMom=    0.0000000   0.0000000   0.0000000   0.0000000   0.0000000
 NMagM=    0.0000000   0.0000000   2.7928460   2.7928460   2.7928460
 AtZNuc=   6.0000000   6.0000000   1.0000000   1.0000000   1.0000000
 Leave Link  101 at Mon Jan  8 21:35:31 2024, MaxMem=   104857600 cpu:               0.2 elap:               0.2
 (Enter /home/kangmg/compchem/gaussian/g16/l202.exe)
                          Input orientation:                          
 ---------------------------------------------------------------------
 Center     Atomic      Atomic             Coordinates (Angstroms)
 Number     Number       Type             X           Y           Z
 ---------------------------------------------------------------------
      1          6           0       -0.097223    0.927494   -1.348549
      2          6           0       -0.097223    0.927494    0.009468
      3          1           0       -0.082756    1.890444    0.534207
      4          1           0       -0.140951    0.004343   -1.933755
      5          1           0       -0.072083    1.857871   -1.920171
 ---------------------------------------------------------------------
                    Distance matrix (angstroms):
                    1          2          3          4          5
     1  C    0.000000
     2  C    1.358017   0.000000
     3  H    2.114770   1.096737   0.000000
     4  H    1.093886   2.151798   3.106702   0.000000
     5  H    1.092238   2.142368   2.454618   1.854857   0.000000
 Symmetry turned off by external request.
 Stoichiometry    C2H3(2)
 Framework group  C1[X(C2H3)]
 Deg. of freedom     9
 Full point group                 C1      NOp   1
 Rotational constants (GHZ):         200.5664656          32.0633058          27.6453369
 Leave Link  202 at Mon Jan  8 21:35:31 2024, MaxMem=   104857600 cpu:               0.0 elap:               0.0
 (Enter /home/kangmg/compchem/gaussian/g16/l301.exe)
 Standard basis: 6-31G(d) (6D, 7F)
 Ernie: Thresh=  0.10000D-02 Tol=  0.10000D-05 Strict=F.
    36 basis functions,    68 primitive gaussians,    36 cartesian basis functions
     8 alpha electrons        7 beta electrons
       nuclear repulsion energy        27.8627395710 Hartrees.
 IExCor=  402 DFT=T Ex+Corr=B3LYP ExCW=0 ScaHFX=  0.200000
 ScaDFX=  0.800000  0.720000  1.000000  0.810000 ScalE2=  1.000000  1.000000
 IRadAn=      5 IRanWt=     -1 IRanGd=            0 ICorTp=0 IEmpDi=141
 NAtoms=    5 NActive=    5 NUniq=    5 SFac= 1.00D+00 NAtFMM=   60 NAOKFM=F Big=F
 Integral buffers will be    131072 words long.
 Raffenetti 2 integral format.
 Two-electron integral symmetry is turned off.
 R6Disp:  Grimme-D3(BJ) Dispersion energy=       -0.0031053712 Hartrees.
 Nuclear repulsion after empirical dispersion term =       27.8596341998 Hartrees.
 Leave Link  301 at Mon Jan  8 21:35:31 2024, MaxMem=   104857600 cpu:               0.1 elap:               0.1
 (Enter /home/kangmg/compchem/gaussian/g16/l302.exe)
 NPDir=0 NMtPBC=     1 NCelOv=     1 NCel=       1 NClECP=     1 NCelD=      1
         NCelK=      1 NCelE2=     1 NClLst=     1 CellRange=     0.0.
 One-electron integrals computed using PRISM.
 NBasis=    36 RedAO= T EigKep=  8.32D-03  NBF=    36
 NBsUse=    36 1.00D-06 EigRej= -1.00D+00 NBFU=    36
 Precomputing XC quadrature grid using
 IXCGrd= 4 IRadAn=           5 IRanWt=          -1 IRanGd=           0 AccXCQ= 0.00D+00.
 Generated NRdTot=       0 NPtTot=           0 NUsed=           0 NTot=          32
 NSgBfM=    36    36    36    36    36 MxSgAt=     5 MxSgA2=     5.
 Leave Link  302 at Mon Jan  8 21:35:31 2024, MaxMem=   104857600 cpu:               0.2 elap:               0.2
 (Enter /home/kangmg/compchem/gaussian/g16/l303.exe)
 DipDrv:  MaxL=1.
 Leave Link  303 at Mon Jan  8 21:35:31 2024, MaxMem=   104857600 cpu:               0.0 elap:               0.0
 (Enter /home/kangmg/compchem/gaussian/g16/l401.exe)
 ExpMin= 1.61D-01 ExpMax= 3.05D+03 ExpMxC= 4.57D+02 IAcc=3 IRadAn=         5 AccDes= 0.00D+00
 Harris functional with IExCor=  402 and IRadAn=       5 diagonalized for initial guess.
 HarFok:  IExCor=  402 AccDes= 0.00D+00 IRadAn=         5 IDoV= 1 UseB2=F ITyADJ=14
 ICtDFT=  3500011 ScaDFX=  1.000000  1.000000  1.000000  1.000000
 FoFCou: FMM=F IPFlag=           0 FMFlag=      100000 FMFlg1=           0
         NFxFlg=           0 DoJE=T BraDBF=F KetDBF=T FulRan=T
         wScrn=  0.000000 ICntrl=       500 IOpCl=  0 I1Cent=   200000004 NGrid=           0
         NMat0=    1 NMatS0=      1 NMatT0=    0 NMatD0=    1 NMtDS0=    0 NMtDT0=    0
 Symmetry not used in FoFCou.
 Harris En= -77.8891142901651    
 JPrj=0 DoOrth=F DoCkMO=F.
 Initial guess <Sx>= 0.0000 <Sy>= 0.0000 <Sz>= 0.5000 <S**2>= 0.7500 S= 0.5000
 Leave Link  401 at Mon Jan  8 21:35:32 2024, MaxMem=   104857600 cpu:               0.7 elap:               0.7
 (Enter /home/kangmg/compchem/gaussian/g16/l502.exe)
 Keep R1 and R2 ints in memory in canonical form, NReq=1307300.
 FoFCou: FMM=F IPFlag=           0 FMFlag=           0 FMFlg1=           0
         NFxFlg=           0 DoJE=F BraDBF=F KetDBF=F FulRan=T
         wScrn=  0.000000 ICntrl=       600 IOpCl=  0 I1Cent=           0 NGrid=           0
         NMat0=    1 NMatS0=    666 NMatT0=    0 NMatD0=    1 NMtDS0=    0 NMtDT0=    0
 Symmetry not used in FoFCou.
 Two-electron integral symmetry not used.
 UHF open shell SCF:
 Using DIIS extrapolation, IDIIS=  1040.
 NGot=   104857600 LenX=   104410073 LenY=   104408336
 Requested convergence on RMS density matrix=1.00D-08 within 128 cycles.
 Requested convergence on MAX density matrix=1.00D-06.
 Requested convergence on             energy=1.00D-06.
 No special actions if energy rises.
 Integral accuracy reduced to 1.0D-05 until final iterations.

 Cycle   1  Pass 0  IDiag  1:
 E= -77.8306727295219    
 DIIS: error= 4.51D-02 at cycle   1 NSaved=   1.
 NSaved= 1 IEnMin= 1 EnMin= -77.8306727295219     IErMin= 1 ErrMin= 4.51D-02
 ErrMax= 4.51D-02  0.00D+00 EMaxC= 1.00D-01 BMatC= 2.29D-01 BMatP= 2.29D-01
 IDIUse=3 WtCom= 5.49D-01 WtEn= 4.51D-01
 Coeff-Com:  0.100D+01
 Coeff-En:   0.100D+01
 Coeff:      0.100D+01
 Gap=     0.307 Goal=   None    Shift=    0.000
 Gap=     0.118 Goal=   None    Shift=    0.000
 GapD=    0.118 DampG=1.000 DampE=0.500 DampFc=0.5000 IDamp=-1.
 Damping current iteration by 5.00D-01
 RMSDP=1.28D-02 MaxDP=1.37D-01              OVMax= 1.98D-01

 Cycle   2  Pass 0  IDiag  1:
 E= -77.8599328645746     Delta-E=       -0.029260135053 Rises=F Damp=T
 DIIS: error= 1.25D-02 at cycle   2 NSaved=   2.
 NSaved= 2 IEnMin= 2 EnMin= -77.8599328645746     IErMin= 2 ErrMin= 1.25D-02
 ErrMax= 1.25D-02  0.00D+00 EMaxC= 1.00D-01 BMatC= 1.47D-02 BMatP= 2.29D-01
 IDIUse=3 WtCom= 8.75D-01 WtEn= 1.25D-01
 Coeff-Com:  0.631D-01 0.937D+00
 Coeff-En:   0.868D-01 0.913D+00
 Coeff:      0.661D-01 0.934D+00
 Gap=     0.270 Goal=   None    Shift=    0.000
 Gap=     0.169 Goal=   None    Shift=    0.000
 RMSDP=2.94D-03 MaxDP=3.94D-02 DE=-2.93D-02 OVMax= 1.48D-01

 Cycle   3  Pass 0  IDiag  1:
 E= -77.8909914770826     Delta-E=       -0.031058612508 Rises=F Damp=F
 DIIS: error= 1.86D-02 at cycle   3 NSaved=   3.
 NSaved= 3 IEnMin= 3 EnMin= -77.8909914770826     IErMin= 2 ErrMin= 1.25D-02
 ErrMax= 1.86D-02  0.00D+00 EMaxC= 1.00D-01 BMatC= 1.82D-02 BMatP= 1.47D-02
 IDIUse=2 WtCom= 0.00D+00 WtEn= 1.00D+00
 Coeff-En:   0.000D+00 0.000D+00 0.100D+01
 Coeff:      0.000D+00 0.000D+00 0.100D+01
 Gap=     0.288 Goal=   None    Shift=    0.000
 Gap=     0.145 Goal=   None    Shift=    0.000
 RMSDP=4.63D-03 MaxDP=6.92D-02 DE=-3.11D-02 OVMax= 1.34D-01

 Cycle   4  Pass 0  IDiag  1:
 E= -77.8758461118778     Delta-E=        0.015145365205 Rises=F Damp=F
 DIIS: error= 3.51D-02 at cycle   4 NSaved=   4.
 NSaved= 4 IEnMin= 3 EnMin= -77.8909914770826     IErMin= 2 ErrMin= 1.25D-02
 ErrMax= 3.51D-02  0.00D+00 EMaxC= 1.00D-01 BMatC= 7.37D-02 BMatP= 1.47D-02
 IDIUse=2 WtCom= 0.00D+00 WtEn= 1.00D+00
 Coeff-En:   0.000D+00 0.000D+00 0.747D+00 0.253D+00
 Coeff:      0.000D+00 0.000D+00 0.747D+00 0.253D+00
 Gap=     0.276 Goal=   None    Shift=    0.000
 Gap=     0.163 Goal=   None    Shift=    0.000
 RMSDP=2.28D-03 MaxDP=3.18D-02 DE= 1.51D-02 OVMax= 6.40D-02

 Cycle   5  Pass 0  IDiag  1:
 E= -77.8952522592237     Delta-E=       -0.019406147346 Rises=F Damp=F
 DIIS: error= 8.78D-03 at cycle   5 NSaved=   5.
 NSaved= 5 IEnMin= 5 EnMin= -77.8952522592237     IErMin= 5 ErrMin= 8.78D-03
 ErrMax= 8.78D-03  0.00D+00 EMaxC= 1.00D-01 BMatC= 4.01D-03 BMatP= 1.47D-02
 IDIUse=3 WtCom= 9.12D-01 WtEn= 8.78D-02
 Coeff-Com: -0.144D-01 0.194D-01 0.986D-01-0.224D+00 0.112D+01
 Coeff-En:   0.000D+00 0.000D+00 0.205D+00 0.000D+00 0.795D+00
 Coeff:     -0.131D-01 0.177D-01 0.108D+00-0.204D+00 0.109D+01
 Gap=     0.270 Goal=   None    Shift=    0.000
 Gap=     0.170 Goal=   None    Shift=    0.000
 RMSDP=7.86D-04 MaxDP=1.23D-02 DE=-1.94D-02 OVMax= 2.62D-02

 Cycle   6  Pass 0  IDiag  1:
 E= -77.8964284273989     Delta-E=       -0.001176168175 Rises=F Damp=F
 DIIS: error= 1.16D-03 at cycle   6 NSaved=   6.
 NSaved= 6 IEnMin= 6 EnMin= -77.8964284273989     IErMin= 6 ErrMin= 1.16D-03
 ErrMax= 1.16D-03  0.00D+00 EMaxC= 1.00D-01 BMatC= 2.79D-05 BMatP= 4.01D-03
 IDIUse=3 WtCom= 9.88D-01 WtEn= 1.16D-02
 Coeff-Com:  0.173D-02-0.834D-03-0.155D+00 0.472D-01-0.436D+00 0.154D+01
 Coeff-En:   0.000D+00 0.000D+00 0.000D+00 0.000D+00 0.000D+00 0.100D+01
 Coeff:      0.171D-02-0.825D-03-0.153D+00 0.466D-01-0.431D+00 0.154D+01
 Gap=     0.271 Goal=   None    Shift=    0.000
 Gap=     0.171 Goal=   None    Shift=    0.000
 RMSDP=2.54D-04 MaxDP=4.61D-03 DE=-1.18D-03 OVMax= 1.01D-02

 Cycle   7  Pass 0  IDiag  1:
 E= -77.8964742406618     Delta-E=       -0.000045813263 Rises=F Damp=F
 DIIS: error= 3.15D-04 at cycle   7 NSaved=   7.
 NSaved= 7 IEnMin= 7 EnMin= -77.8964742406618     IErMin= 7 ErrMin= 3.15D-04
 ErrMax= 3.15D-04  0.00D+00 EMaxC= 1.00D-01 BMatC= 3.11D-06 BMatP= 2.79D-05
 IDIUse=3 WtCom= 9.97D-01 WtEn= 3.15D-03
 Coeff-Com:  0.330D-02-0.235D-02-0.132D-01 0.481D-01-0.242D+00-0.270D+00
 Coeff-Com:  0.148D+01
 Coeff-En:   0.000D+00 0.000D+00 0.000D+00 0.000D+00 0.000D+00 0.000D+00
 Coeff-En:   0.100D+01
 Coeff:      0.329D-02-0.234D-02-0.132D-01 0.480D-01-0.242D+00-0.269D+00
 Coeff:      0.147D+01
 Gap=     0.271 Goal=   None    Shift=    0.000
 Gap=     0.171 Goal=   None    Shift=    0.000
 RMSDP=1.72D-04 MaxDP=2.83D-03 DE=-4.58D-05 OVMax= 6.10D-03

 Cycle   8  Pass 0  IDiag  1:
 E= -77.8964848876836     Delta-E=       -0.000010647022 Rises=F Damp=F
 DIIS: error= 5.17D-05 at cycle   8 NSaved=   8.
 NSaved= 8 IEnMin= 8 EnMin= -77.8964848876836     IErMin= 8 ErrMin= 5.17D-05
 ErrMax= 5.17D-05  0.00D+00 EMaxC= 1.00D-01 BMatC= 1.63D-07 BMatP= 3.11D-06
 IDIUse=1 WtCom= 1.00D+00 WtEn= 0.00D+00
 Coeff-Com: -0.802D-03 0.197D-02 0.184D-01-0.122D-01 0.775D-01-0.180D+00
 Coeff-Com: -0.810D-01 0.118D+01
 Coeff:     -0.802D-03 0.197D-02 0.184D-01-0.122D-01 0.775D-01-0.180D+00
 Coeff:     -0.810D-01 0.118D+01
 Gap=     0.271 Goal=   None    Shift=    0.000
 Gap=     0.171 Goal=   None    Shift=    0.000
 RMSDP=3.37D-05 MaxDP=5.18D-04 DE=-1.06D-05 OVMax= 1.18D-03

 Cycle   9  Pass 0  IDiag  1:
 E= -77.8964852452347     Delta-E=       -0.000000357551 Rises=F Damp=F
 DIIS: error= 4.66D-06 at cycle   9 NSaved=   9.
 NSaved= 9 IEnMin= 9 EnMin= -77.8964852452347     IErMin= 9 ErrMin= 4.66D-06
 ErrMax= 4.66D-06  0.00D+00 EMaxC= 1.00D-01 BMatC= 3.08D-09 BMatP= 1.63D-07
 IDIUse=1 WtCom= 1.00D+00 WtEn= 0.00D+00
 Coeff-Com:  0.894D-04-0.368D-03-0.298D-02 0.122D-02-0.912D-02 0.345D-01
 Coeff-Com: -0.160D-01-0.197D+00 0.119D+01
 Coeff:      0.894D-04-0.368D-03-0.298D-02 0.122D-02-0.912D-02 0.345D-01
 Coeff:     -0.160D-01-0.197D+00 0.119D+01
 Gap=     0.271 Goal=   None    Shift=    0.000
 Gap=     0.171 Goal=   None    Shift=    0.000
 RMSDP=2.85D-06 MaxDP=3.93D-05 DE=-3.58D-07 OVMax= 8.76D-05

 Initial convergence to 1.0D-05 achieved.  Increase integral accuracy.
 Cycle  10  Pass 1  IDiag  1:
 E= -77.8964855406765     Delta-E=       -0.000000295442 Rises=F Damp=F
 DIIS: error= 1.41D-06 at cycle   1 NSaved=   1.
 NSaved= 1 IEnMin= 1 EnMin= -77.8964855406765     IErMin= 1 ErrMin= 1.41D-06
 ErrMax= 1.41D-06  0.00D+00 EMaxC= 1.00D-01 BMatC= 3.51D-10 BMatP= 3.51D-10
 IDIUse=1 WtCom= 1.00D+00 WtEn= 0.00D+00
 Coeff-Com:  0.100D+01
 Coeff:      0.100D+01
 Gap=     0.271 Goal=   None    Shift=    0.000
 Gap=     0.171 Goal=   None    Shift=    0.000
 RMSDP=2.85D-06 MaxDP=3.93D-05 DE=-2.95D-07 OVMax= 8.14D-06

 Cycle  11  Pass 1  IDiag  1:
 E= -77.8964855408315     Delta-E=       -0.000000000155 Rises=F Damp=F
 DIIS: error= 9.08D-07 at cycle   2 NSaved=   2.
 NSaved= 2 IEnMin= 2 EnMin= -77.8964855408315     IErMin= 2 ErrMin= 9.08D-07
 ErrMax= 9.08D-07  0.00D+00 EMaxC= 1.00D-01 BMatC= 1.10D-10 BMatP= 3.51D-10
 IDIUse=1 WtCom= 1.00D+00 WtEn= 0.00D+00
 Coeff-Com:  0.283D+00 0.717D+00
 Coeff:      0.283D+00 0.717D+00
 Gap=     0.271 Goal=   None    Shift=    0.000
 Gap=     0.171 Goal=   None    Shift=    0.000
 RMSDP=2.30D-07 MaxDP=2.14D-06 DE=-1.55D-10 OVMax= 4.74D-06

 Cycle  12  Pass 1  IDiag  1:
 E= -77.8964855408559     Delta-E=       -0.000000000024 Rises=F Damp=F
 DIIS: error= 1.04D-06 at cycle   3 NSaved=   3.
 NSaved= 3 IEnMin= 3 EnMin= -77.8964855408559     IErMin= 2 ErrMin= 9.08D-07
 ErrMax= 1.04D-06  0.00D+00 EMaxC= 1.00D-01 BMatC= 6.60D-11 BMatP= 1.10D-10
 IDIUse=1 WtCom= 1.00D+00 WtEn= 0.00D+00
 Coeff-Com:  0.142D-01 0.417D+00 0.569D+00
 Coeff:      0.142D-01 0.417D+00 0.569D+00
 Gap=     0.271 Goal=   None    Shift=    0.000
 Gap=     0.171 Goal=   None    Shift=    0.000
 RMSDP=1.33D-07 MaxDP=1.94D-06 DE=-2.44D-11 OVMax= 3.71D-06

 Cycle  13  Pass 1  IDiag  1:
 E= -77.8964855408737     Delta-E=       -0.000000000018 Rises=F Damp=F
 DIIS: error= 4.54D-07 at cycle   4 NSaved=   4.
 NSaved= 4 IEnMin= 4 EnMin= -77.8964855408737     IErMin= 4 ErrMin= 4.54D-07
 ErrMax= 4.54D-07  0.00D+00 EMaxC= 1.00D-01 BMatC= 1.43D-11 BMatP= 6.60D-11
 IDIUse=1 WtCom= 1.00D+00 WtEn= 0.00D+00
 Coeff-Com: -0.111D+00-0.203D-01 0.343D+00 0.789D+00
 Coeff:     -0.111D+00-0.203D-01 0.343D+00 0.789D+00
 Gap=     0.271 Goal=   None    Shift=    0.000
 Gap=     0.171 Goal=   None    Shift=    0.000
 RMSDP=6.78D-08 MaxDP=7.95D-07 DE=-1.78D-11 OVMax= 1.61D-06

 Cycle  14  Pass 1  IDiag  1:
 E= -77.8964855408788     Delta-E=       -0.000000000005 Rises=F Damp=F
 DIIS: error= 8.47D-08 at cycle   5 NSaved=   5.
 NSaved= 5 IEnMin= 5 EnMin= -77.8964855408788     IErMin= 5 ErrMin= 8.47D-08
 ErrMax= 8.47D-08  0.00D+00 EMaxC= 1.00D-01 BMatC= 8.21D-13 BMatP= 1.43D-11
 IDIUse=1 WtCom= 1.00D+00 WtEn= 0.00D+00
 Coeff-Com: -0.429D-01-0.385D-01 0.833D-01 0.314D+00 0.684D+00
 Coeff:     -0.429D-01-0.385D-01 0.833D-01 0.314D+00 0.684D+00
 Gap=     0.271 Goal=   None    Shift=    0.000
 Gap=     0.171 Goal=   None    Shift=    0.000
 RMSDP=1.69D-08 MaxDP=1.74D-07 DE=-5.09D-12 OVMax= 3.43D-07

 Cycle  15  Pass 1  IDiag  1:
 E= -77.8964855408789     Delta-E=       -0.000000000000 Rises=F Damp=F
 DIIS: error= 2.31D-08 at cycle   6 NSaved=   6.
 NSaved= 6 IEnMin= 6 EnMin= -77.8964855408789     IErMin= 6 ErrMin= 2.31D-08
 ErrMax= 2.31D-08  0.00D+00 EMaxC= 1.00D-01 BMatC= 4.65D-14 BMatP= 8.21D-13
 IDIUse=1 WtCom= 1.00D+00 WtEn= 0.00D+00
 Coeff-Com:  0.700D-02-0.307D-02-0.316D-01-0.463D-01 0.115D+00 0.959D+00
 Coeff:      0.700D-02-0.307D-02-0.316D-01-0.463D-01 0.115D+00 0.959D+00
 Gap=     0.271 Goal=   None    Shift=    0.000
 Gap=     0.171 Goal=   None    Shift=    0.000
 RMSDP=6.53D-09 MaxDP=9.26D-08 DE=-1.71D-13 OVMax= 1.95D-07

 SCF Done:  E(UB3LYP) =  -77.8964855409     A.U. after   15 cycles
            NFock= 15  Conv=0.65D-08     -V/T= 2.0115
 <Sx>= 0.0000 <Sy>= 0.0000 <Sz>= 0.5000 <S**2>= 0.7659 S= 0.5079
 <L.S>= 0.000000000000E+00
 KE= 7.701031723620D+01 PE=-2.356777857975D+02 EE= 5.291134882066D+01
 Annihilation of the first spin contaminant:
 S**2 before annihilation     0.7659,   after     0.7501
 Leave Link  502 at Mon Jan  8 21:35:40 2024, MaxMem=   104857600 cpu:               8.4 elap:               8.4
 (Enter /home/kangmg/compchem/gaussian/g16/l601.exe)
 Copying SCF densities to generalized density rwf, IOpCl= 1 IROHF=0.

 **********************************************************************

            Population analysis using the SCF density.

 **********************************************************************

 Alpha  occ. eigenvalues --  -10.22279 -10.19631  -0.75615  -0.57214  -0.45674
 Alpha  occ. eigenvalues --   -0.40639  -0.27303  -0.26603
 Alpha virt. eigenvalues --    0.00535   0.11575   0.14044   0.20468   0.31850
 Alpha virt. eigenvalues --    0.48862   0.54404   0.55893   0.60300   0.62796
 Alpha virt. eigenvalues --    0.65966   0.82490   0.85115   0.92075   0.94433
 Alpha virt. eigenvalues --    1.09385   1.44444   1.54336   1.73837   1.81416
 Alpha virt. eigenvalues --    1.90708   2.05066   2.19942   2.34846   2.55663
 Alpha virt. eigenvalues --    2.66898   4.02081   4.20705
  Beta  occ. eigenvalues --  -10.20657 -10.19786  -0.74006  -0.55220  -0.44086
  Beta  occ. eigenvalues --   -0.39308  -0.26384
  Beta virt. eigenvalues --   -0.09237   0.02019   0.12391   0.14556   0.21316
  Beta virt. eigenvalues --    0.33621   0.50042   0.54845   0.59425   0.63607
  Beta virt. eigenvalues --    0.64157   0.67060   0.83335   0.86649   0.92580
  Beta virt. eigenvalues --    0.96450   1.10599   1.45831   1.56718   1.80050
  Beta virt. eigenvalues --    1.84534   1.91860   2.07583   2.21468   2.36529
  Beta virt. eigenvalues --    2.58310   2.69239   4.04727   4.21948
          Condensed to atoms (all electrons):
               1          2          3          4          5
     1  C    5.010252   0.651950  -0.056676   0.368897   0.366220
     2  C    0.651950   5.216119   0.342512  -0.034670  -0.032938
     3  H   -0.056676   0.342512   0.559928   0.004565  -0.005767
     4  H    0.368897  -0.034670   0.004565   0.539476  -0.039470
     5  H    0.366220  -0.032938  -0.005767  -0.039470   0.544980
          Atomic-Atomic Spin Densities.
               1          2          3          4          5
     1  C   -0.185248  -0.021579   0.007046   0.009199   0.008558
     2  C   -0.021579   1.134989  -0.029576  -0.008712  -0.019635
     3  H    0.007046  -0.029576   0.053439   0.001240  -0.007351
     4  H    0.009199  -0.008712   0.001240   0.041500  -0.012983
     5  H    0.008558  -0.019635  -0.007351  -0.012983   0.102904
 Mulliken charges and spin densities:
               1          2
     1  C   -0.340643  -0.182024
     2  C   -0.142972   1.055487
     3  H    0.155437   0.024798
     4  H    0.161201   0.030244
     5  H    0.166976   0.071494
 Sum of Mulliken charges =  -0.00000   1.00000
 Mulliken charges and spin densities with hydrogens summed into heavy atoms:
               1          2
     1  C   -0.012466  -0.080285
     2  C    0.012466   1.080285
 Electronic spatial extent (au):  <R**2>=            155.6206
 Charge=             -0.0000 electrons
 Dipole moment (field-independent basis, Debye):
    X=             -0.0103    Y=              0.6332    Z=             -0.4799  Tot=              0.7945
 Quadrupole moment (field-independent basis, Debye-Ang):
   XX=            -14.3721   YY=            -10.4088   ZZ=            -11.0536
   XY=              0.0158   XZ=              0.0761   YZ=             -0.1165
 Traceless Quadrupole moment (field-independent basis, Debye-Ang):
   XX=             -2.4272   YY=              1.5360   ZZ=              0.8912
   XY=              0.0158   XZ=              0.0761   YZ=             -0.1165
 Octapole moment (field-independent basis, Debye-Ang**2):
  XXX=              4.1883  YYY=            -31.7816  ZZZ=             24.0850  XYY=              1.1579
  XXY=            -14.0078  XXZ=             10.6398  XZZ=              1.0142  YZZ=            -10.5673
  YYZ=              8.1526  XYZ=             -0.0738
 Hexadecapole moment (field-independent basis, Debye-Ang**3):
 XXXX=            -15.9744 YYYY=            -84.4423 ZZZZ=            -95.9290 XXXY=              3.9391
 XXXZ=             -3.1949 YYYX=              3.2302 YYYZ=             21.9516 ZZZX=             -2.2979
 ZZZY=             21.1508 XXYY=            -20.4494 XXZZ=            -21.4354 YYZZ=            -27.4761
 XXYZ=              9.5079 YYXZ=             -0.9655 ZZXY=              1.1344
 N-N= 2.785963419977D+01 E-N=-2.356777852177D+02  KE= 7.701031723620D+01
                          Isotropic Fermi Contact Couplings
        Atom                 a.u.       MegaHertz       Gauss      10(-4) cm-1
     1  C(13)             -0.00700      -7.87137      -2.80870      -2.62561
     2  C(13)              0.45035     506.28456     180.65492     168.87835
     3  H(1)               0.02319     103.64048      36.98150      34.57074
     4  H(1)               0.01519      67.87835      24.22068      22.64178
     5  H(1)               0.03249     145.22227      51.81892      48.44094
 --------------------------------------------------------
       Center         ----  Spin Dipole Couplings  ----
                      3XX-RR        3YY-RR        3ZZ-RR
 --------------------------------------------------------
     1   Atom       -0.184075      0.035653      0.148422
     2   Atom       -0.310398      0.466614     -0.156217
     3   Atom       -0.050996      0.049101      0.001895
     4   Atom       -0.012622     -0.010969      0.023590
     5   Atom       -0.010907     -0.001812      0.012720
 --------------------------------------------------------
                        XY            XZ            YZ
 --------------------------------------------------------
     1   Atom        0.006628      0.003090     -0.025663
     2   Atom        0.031160     -0.020545     -0.603378
     3   Atom        0.001757      0.000032      0.046278
     4   Atom        0.000218      0.000513      0.005198
     5   Atom        0.000523     -0.000101     -0.003522
 --------------------------------------------------------


 ---------------------------------------------------------------------------------
              Anisotropic Spin Dipole Couplings in Principal Axis System
 ---------------------------------------------------------------------------------

       Atom             a.u.   MegaHertz   Gauss  10(-4) cm-1        Axes

              Baa    -0.1843   -24.734    -8.826    -8.250  0.9994 -0.0315 -0.0117
     1 C(13)  Bbb     0.0303     4.069     1.452     1.357  0.0332  0.9768  0.2114
              Bcc     0.1540    20.665     7.374     6.893  0.0048 -0.2117  0.9773
 
              Baa    -0.5238   -70.291   -25.081   -23.446  0.0063  0.5201  0.8541
     2 C(13)  Bbb    -0.3116   -41.814   -14.920   -13.948  0.9995 -0.0311  0.0116
              Bcc     0.8354   112.105    40.002    37.394  0.0325  0.8535 -0.5200
 
              Baa    -0.0510   -27.236    -9.718    -9.085  0.9993 -0.0289  0.0247
     3 H(1)   Bbb    -0.0264   -14.096    -5.030    -4.702 -0.0362 -0.5215  0.8525
              Bcc     0.0775    41.332    14.748    13.787  0.0118  0.8527  0.5222
 
              Baa    -0.0127    -6.750    -2.409    -2.252  0.9883 -0.1526  0.0079
     4 H(1)   Bbb    -0.0117    -6.249    -2.230    -2.084  0.1521  0.9775 -0.1461
              Bcc     0.0244    12.999     4.638     4.336  0.0146  0.1456  0.9892
 
              Baa    -0.0109    -5.836    -2.082    -1.947  0.9983 -0.0589 -0.0045
     5 H(1)   Bbb    -0.0026    -1.383    -0.494    -0.461  0.0584  0.9728  0.2241
              Bcc     0.0135     7.219     2.576     2.408 -0.0088 -0.2240  0.9745
 

 ---------------------------------------------------------------------------------

 No NMR shielding tensors so no spin-rotation constants.
 Leave Link  601 at Mon Jan  8 21:35:40 2024, MaxMem=   104857600 cpu:               0.2 elap:               0.2
 (Enter /home/kangmg/compchem/gaussian/g16/l608.exe)
 IExCor=  402 DFT=T Ex+Corr=B3LYP ExCW=0 ScaHFX=  0.200000
 ScaDFX=  0.800000  0.720000  1.000000  0.810000 ScalE2=  1.000000  1.000000
 IRadAn=      5 IRanWt=     -1 IRanGd=            0 ICorTp=0 IEmpDi=  4
 A total of   1 models will be applied.

 Results using SCF density:
 FoFJK:  IHMeth= 0 ICntrl=     500 DoSepK=F KAlg= 0 I1Cent=           0 FoldK=F
 IRaf=         0 NMat=       2 IRICut=       1 DoRegI=T DoRafI=F ISym2E= 0 IDoP0=0 IntGTp=1.
 FoFCou: FMM=F IPFlag=           0 FMFlag=           0 FMFlg1=           0
         NFxFlg=           0 DoJE=F BraDBF=F KetDBF=F FulRan=T
         wScrn=  0.000000 ICntrl=       500 IOpCl=  1 I1Cent=           0 NGrid=           0
         NMat0=    2 NMatS0=      2 NMatT0=    0 NMatD0=    2 NMtDS0=    0 NMtDT0=    0
 Symmetry not used in FoFCou.
 ET=   77.010317 EV= -235.677785 EJ=   64.760894 EK=  -11.321357 ENuc=   27.859634

 A=0 I=   1 IExCor=  402 IRadAn=       5 ScaHFX=  0.200000
            ScaDFX=  0.800000  0.720000  1.000000  0.810000
 HFx=  0.000000  0.000000  1.000000  0.000000  0.000000
 DFx=  0.000000  0.000000  1.000000  0.000000  0.000000
 DFc=  0.000000  0.000000  1.000000  0.000000  0.000000
            ENTVJ=  -66.046940 Ex=  -11.247240 Ec=   -0.602306 ETotM2e= -140.3931078884  ETot=  -77.8964855409
 Leave Link  608 at Mon Jan  8 21:35:41 2024, MaxMem=   104857600 cpu:               0.7 elap:               0.7
 (Enter /home/kangmg/compchem/gaussian/g16/l9999.exe)

 Test job not archived.
 1\1\GINC-KANGMG-22\SP\UB3LYP\6-31G(d)\C2H3(2)\KANGMG\08-Jan-2024\0\\#p
  b3lyp/6-31G* em=gd3bj ExtraLinks=L608 nosymm\\opted geometry\\0,2\C,0
 ,-0.09722328,0.92749429,-1.34854937\C,0,-0.09722328,0.92749429,0.00946
 785\H,0,-0.08275574,1.89044418,0.53420702\H,0,-0.14095077,0.00434317,-
 1.9337549\H,0,-0.07208301,1.85787112,-1.92017139\\Version=ES64L-G16Rev
 A.03\HF=-77.8964855\S2=0.765857\S2-1=0.\S2A=0.750053\RMSD=6.525e-09\Di
 pole=-0.004062,0.2491133,-0.188797\Quadrupole=-1.804587,1.1419915,0.66
 25955,0.0117835,0.056601,-0.086605\PG=C01 [X(C2H3)]\\@


 ... THIS SEEMS PLAINLY ABSURD; BUT WHOEVER WISHES TO BECOME A 
 PHILOSOPHER MUST LEARN NOT TO BE FRIGHTENED BY ABSURDITIES.

                          -- BERTRAND RUSSELL
 Job cpu time:       0 days  0 hours  0 minutes 10.7 seconds.
 Elapsed time:       0 days  0 hours  0 minutes 10.6 seconds.
 File lengths (MBytes):  RWF=      6 Int=      0 D2E=      0 Chk=      1 Scr=      1
 Normal termination of Gaussian 16 at Mon Jan  8 21:35:41 2024.
