Generated by Multiwfn
SP        UB3LYP                                              6-31G(d)
Number of atoms                            I               10
Charge                                     I                0
Multiplicity                               I                1
Number of electrons                        I               30
Number of alpha electrons                  I               15
Number of beta electrons                   I               15
Number of basis functions                  I               72
Number of independent functions            I               72
Atomic numbers                             I   N=          10
           6           6           1           1           1           6
           6           1           1           1
Nuclear charges                            R   N=          10
  6.00000000E+00  6.00000000E+00  1.00000000E+00  1.00000000E+00  1.00000000E+00
  6.00000000E+00  6.00000000E+00  1.00000000E+00  1.00000000E+00  1.00000000E+00
Current cartesian coordinates              R   N=          30
 -1.83725372E-01 -5.31232722E-01  1.67042441E+00  5.27409617E-01 -2.89522101E+00
  9.69249260E-01  1.26120231E+00 -3.31538686E+00 -9.17044366E-01  4.29731771E-01
 -4.48627679E+00  2.28043411E+00 -8.48989357E-01 -2.30075346E-01  3.61002662E+00
 -1.83725372E-01  1.75271019E+00 -2.54838897E+00 -1.83725372E-01  1.75271019E+00
  1.78916435E-02 -1.56385684E-01  3.57242175E+00  1.00950496E+00 -2.66358352E-01
  8.20740181E-03 -3.65426715E+00 -1.36217147E-01  3.51086759E+00 -3.62859804E+00
Translation vectors                        R   N=           0
Number of contracted shells                I               36
Number of primitive shells                 I               84
Highest angular momentum                   I                2
Largest degree of contraction              I                6
Shell types                                I   N=          36
           0           0           1           0           1           2
           0           0           1           0           1           2
           0           0           0           0           0           0
           0           0           1           0           1           2
           0           0           1           0           1           2
           0           0           0           0           0           0
Number of primitives per shell             I   N=          36
           6           3           3           1           1           1
           6           3           3           1           1           1
           3           1           3           1           3           1
           6           3           3           1           1           1
           6           3           3           1           1           1
           3           1           3           1           3           1
Shell to atom map                          I   N=          36
           1           1           1           1           1           1
           2           2           2           2           2           2
           3           3           4           4           5           5
           6           6           6           6           6           6
           7           7           7           7           7           7
           8           8           9           9          10          10
Primitive exponents                        R   N=          84
  3.04752488E+03  4.57369518E+02  1.03948685E+02  2.92101553E+01  9.28666296E+00
  3.16392696E+00  7.86827235E+00  1.88128854E+00  5.44249258E-01  7.86827235E+00
  1.88128854E+00  5.44249258E-01  1.68714478E-01  1.68714478E-01  8.00000000E-01
  3.04752488E+03  4.57369518E+02  1.03948685E+02  2.92101553E+01  9.28666296E+00
  3.16392696E+00  7.86827235E+00  1.88128854E+00  5.44249258E-01  7.86827235E+00
  1.88128854E+00  5.44249258E-01  1.68714478E-01  1.68714478E-01  8.00000000E-01
  1.87311370E+01  2.82539436E+00  6.40121692E-01  1.61277759E-01  1.87311370E+01
  2.82539436E+00  6.40121692E-01  1.61277759E-01  1.87311370E+01  2.82539436E+00
  6.40121692E-01  1.61277759E-01  3.04752488E+03  4.57369518E+02  1.03948685E+02
  2.92101553E+01  9.28666296E+00  3.16392696E+00  7.86827235E+00  1.88128854E+00
  5.44249258E-01  7.86827235E+00  1.88128854E+00  5.44249258E-01  1.68714478E-01
  1.68714478E-01  8.00000000E-01  3.04752488E+03  4.57369518E+02  1.03948685E+02
  2.92101553E+01  9.28666296E+00  3.16392696E+00  7.86827235E+00  1.88128854E+00
  5.44249258E-01  7.86827235E+00  1.88128854E+00  5.44249258E-01  1.68714478E-01
  1.68714478E-01  8.00000000E-01  1.87311370E+01  2.82539436E+00  6.40121692E-01
  1.61277759E-01  1.87311370E+01  2.82539436E+00  6.40121692E-01  1.61277759E-01
  1.87311370E+01  2.82539436E+00  6.40121692E-01  1.61277759E-01
Contraction coefficients                   R   N=          84
  1.83473713E-03  1.40373228E-02  6.88426223E-02  2.32184443E-01  4.67941348E-01
  3.62311985E-01 -1.19332420E-01 -1.60854152E-01  1.14345644E+00  6.89990666E-02
  3.16423961E-01  7.44308291E-01  1.00000000E+00  1.00000000E+00  1.00000000E+00
  1.83473713E-03  1.40373228E-02  6.88426223E-02  2.32184443E-01  4.67941348E-01
  3.62311985E-01 -1.19332420E-01 -1.60854152E-01  1.14345644E+00  6.89990666E-02
  3.16423961E-01  7.44308291E-01  1.00000000E+00  1.00000000E+00  1.00000000E+00
  3.34946043E-02  2.34726953E-01  8.13757326E-01  1.00000000E+00  3.34946043E-02
  2.34726953E-01  8.13757326E-01  1.00000000E+00  3.34946043E-02  2.34726953E-01
  8.13757326E-01  1.00000000E+00  1.83473713E-03  1.40373228E-02  6.88426223E-02
  2.32184443E-01  4.67941348E-01  3.62311985E-01 -1.19332420E-01 -1.60854152E-01
  1.14345644E+00  6.89990666E-02  3.16423961E-01  7.44308291E-01  1.00000000E+00
  1.00000000E+00  1.00000000E+00  1.83473713E-03  1.40373228E-02  6.88426223E-02
  2.32184443E-01  4.67941348E-01  3.62311985E-01 -1.19332420E-01 -1.60854152E-01
  1.14345644E+00  6.89990666E-02  3.16423961E-01  7.44308291E-01  1.00000000E+00
  1.00000000E+00  1.00000000E+00  3.34946043E-02  2.34726953E-01  8.13757326E-01
  1.00000000E+00  3.34946043E-02  2.34726953E-01  8.13757326E-01  1.00000000E+00
  3.34946043E-02  2.34726953E-01  8.13757326E-01  1.00000000E+00
Coordinates of each shell                  R   N=         108
 -1.83725372E-01 -5.31232722E-01  1.67042441E+00 -1.83725372E-01 -5.31232722E-01
  1.67042441E+00 -1.83725372E-01 -5.31232722E-01  1.67042441E+00 -1.83725372E-01
 -5.31232722E-01  1.67042441E+00 -1.83725372E-01 -5.31232722E-01  1.67042441E+00
 -1.83725372E-01 -5.31232722E-01  1.67042441E+00  5.27409617E-01 -2.89522101E+00
  9.69249260E-01  5.27409617E-01 -2.89522101E+00  9.69249260E-01  5.27409617E-01
 -2.89522101E+00  9.69249260E-01  5.27409617E-01 -2.89522101E+00  9.69249260E-01
  5.27409617E-01 -2.89522101E+00  9.69249260E-01  5.27409617E-01 -2.89522101E+00
  9.69249260E-01  1.26120231E+00 -3.31538686E+00 -9.17044366E-01  1.26120231E+00
 -3.31538686E+00 -9.17044366E-01  4.29731771E-01 -4.48627679E+00  2.28043411E+00
  4.29731771E-01 -4.48627679E+00  2.28043411E+00 -8.48989357E-01 -2.30075346E-01
  3.61002662E+00 -8.48989357E-01 -2.30075346E-01  3.61002662E+00 -1.83725372E-01
  1.75271019E+00 -2.54838897E+00 -1.83725372E-01  1.75271019E+00 -2.54838897E+00
 -1.83725372E-01  1.75271019E+00 -2.54838897E+00 -1.83725372E-01  1.75271019E+00
 -2.54838897E+00 -1.83725372E-01  1.75271019E+00 -2.54838897E+00 -1.83725372E-01
  1.75271019E+00 -2.54838897E+00 -1.83725372E-01  1.75271019E+00  1.78916435E-02
 -1.83725372E-01  1.75271019E+00  1.78916435E-02 -1.83725372E-01  1.75271019E+00
  1.78916435E-02 -1.83725372E-01  1.75271019E+00  1.78916435E-02 -1.83725372E-01
  1.75271019E+00  1.78916435E-02 -1.83725372E-01  1.75271019E+00  1.78916435E-02
 -1.56385684E-01  3.57242175E+00  1.00950496E+00 -1.56385684E-01  3.57242175E+00
  1.00950496E+00 -2.66358352E-01  8.20740181E-03 -3.65426715E+00 -2.66358352E-01
  8.20740181E-03 -3.65426715E+00 -1.36217147E-01  3.51086759E+00 -3.62859804E+00
 -1.36217147E-01  3.51086759E+00 -3.62859804E+00
Virial Ratio                               R      2.000000000000000E+00
Total Energy                               R      0.000000000000000E+00
Num ILSW                                   I              1
ILSW                                       I   N=         1
           1
Alpha Orbital Energies                     R   N=          72
 -1.02065643E+01 -1.01978590E+01 -7.40060534E-01 -5.52201125E-01 -4.40858744E-01
 -3.93077467E-01 -2.63838025E-01 -1.02227909E+01 -1.01963093E+01 -7.56153098E-01
 -5.72142783E-01 -4.56735401E-01 -4.06394602E-01 -2.73025846E-01 -2.66027552E-01
  5.94239547E-01  6.36065044E-01  6.41568223E-01  6.70603795E-01  8.33354639E-01
  8.66495908E-01  9.25801686E-01  9.64506962E-01  1.10597682E+00  1.45830680E+00
  1.56718071E+00  1.80050795E+00  1.84534585E+00  1.91860953E+00  2.07581224E+00
  2.21466039E+00  2.36529204E+00  2.58312814E+00  2.69238887E+00  4.04727474E+00
  4.21947648E+00 -9.23712651E-02  2.01863082E-02  1.23914557E-01  1.45560514E-01
  2.13152368E-01  3.36216608E-01  5.00423182E-01  5.48454683E-01  5.35061944E-03
  1.15747122E-01  1.40444484E-01  2.04681101E-01  3.18499409E-01  4.88621584E-01
  5.44041446E-01  5.58933710E-01  6.03004587E-01  6.27964889E-01  6.59659089E-01
  8.24897076E-01  8.51146127E-01  9.20751140E-01  9.44327217E-01  1.09384732E+00
  1.44444314E+00  1.54336252E+00  1.73837043E+00  1.81416319E+00  1.90708244E+00
  2.05065774E+00  2.19942106E+00  2.34846191E+00  2.55663032E+00  2.66898489E+00
  4.02081057E+00  4.20705127E+00
Beta Orbital Energies                      R   N=          72
 -1.02227897E+01 -1.01963089E+01 -7.56151515E-01 -5.72144910E-01 -4.56737657E-01
 -4.06394368E-01 -2.73025261E-01 -2.66024797E-01 -1.02065655E+01 -1.01978594E+01
 -7.40062252E-01 -5.52199492E-01 -4.40855585E-01 -3.93077281E-01 -2.63838574E-01
  5.58934927E-01  6.02993500E-01  6.27965054E-01  6.59661233E-01  8.24905355E-01
  8.51152591E-01  9.20752415E-01  9.44333594E-01  1.09383866E+00  1.44444307E+00
  1.54336303E+00  1.73837190E+00  1.81416449E+00  1.90708736E+00  2.05064500E+00
  2.19940604E+00  2.34846142E+00  2.55665524E+00  2.66898258E+00  4.02081202E+00
  4.20705078E+00  5.35068964E-03  1.15753486E-01  1.40444254E-01  2.04676263E-01
  3.18502637E-01  4.88622574E-01  5.44041850E-01 -9.23742120E-02  2.01865470E-02
  1.23909239E-01  1.45559433E-01  2.13157492E-01  3.36213821E-01  5.00421431E-01
  5.48454272E-01  5.94247552E-01  6.36065064E-01  6.41567604E-01  6.70604245E-01
  8.33348052E-01  8.66488647E-01  9.25799972E-01  9.64500240E-01  1.10598608E+00
  1.45830839E+00  1.56717912E+00  1.80050384E+00  1.84534323E+00  1.91860367E+00
  2.07582551E+00  2.21467890E+00  2.36529366E+00  2.58309990E+00  2.69239448E+00
  4.04727320E+00  4.21947731E+00
Alpha MO coefficients                      R   N=        5184
  9.92180687E-01  4.67814244E-02 -6.01206571E-05 -7.05825170E-04  6.44320065E-04
 -1.17716424E-02 -1.46928862E-05  2.18235854E-03 -1.39564281E-03 -8.93804428E-03
 -8.96866606E-03 -8.95872507E-03 -1.96730660E-04 -1.28384961E-04  5.67584593E-04
  4.10118488E-02  1.48550074E-03  1.55340668E-04 -4.54095447E-04 -1.86034840E-04
  4.18687670E-03 -8.50730567E-04  1.57137225E-03  1.62171149E-03 -5.70775038E-04
 -7.82742427E-04 -5.41792706E-04  5.31390455E-05 -7.55024386E-06  4.55483149E-07
 -4.14164490E-05  6.80536887E-04 -1.92620282E-04 -3.01641676E-04 -3.31912288E-04
  2.78980308E-03  0.00000000E+00  0.00000000E+00  0.00000000E+00  0.00000000E+00
  0.00000000E+00  0.00000000E+00  0.00000000E+00  0.00000000E+00  0.00000000E+00
  0.00000000E+00  0.00000000E+00  0.00000000E+00  0.00000000E+00  0.00000000E+00
  0.00000000E+00  0.00000000E+00  0.00000000E+00  0.00000000E+00  0.00000000E+00
  0.00000000E+00  0.00000000E+00  0.00000000E+00  0.00000000E+00  0.00000000E+00
  0.00000000E+00  0.00000000E+00  0.00000000E+00  0.00000000E+00  0.00000000E+00
  0.00000000E+00  0.00000000E+00  0.00000000E+00  0.00000000E+00  0.00000000E+00
  0.00000000E+00  0.00000000E+00 -4.14669059E-02 -2.42646183E-03 -1.06287527E-04
  4.10958628E-04  7.05608591E-05  4.78762984E-03  5.09075916E-04 -1.83202898E-03
 -3.92353421E-04  2.25229448E-04  4.75380103E-05  1.82420667E-04  5.79193231E-05
  3.24231731E-05 -4.19764740E-05  9.91868145E-01  4.91586787E-02 -7.08868702E-07
 -3.38875926E-05  3.03884711E-05 -1.29589619E-02  2.67718133E-04 -8.10644426E-04
 -3.85892310E-04 -9.64366599E-03 -9.29559709E-03 -9.46861556E-03 -1.15653294E-04
 -1.01082948E-04  6.55982398E-05 -3.42530255E-04  2.11744585E-03 -3.25839990E-04
  2.23605223E-03 -7.96246020E-05 -1.26561151E-04  0.00000000E+00  0.00000000E+00
  0.00000000E+00  0.00000000E+00  0.00000000E+00  0.00000000E+00  0.00000000E+00
  0.00000000E+00  0.00000000E+00  0.00000000E+00  0.00000000E+00  0.00000000E+00
  0.00000000E+00  0.00000000E+00  0.00000000E+00  0.00000000E+00  0.00000000E+00
  0.00000000E+00  0.00000000E+00  0.00000000E+00  0.00000000E+00  0.00000000E+00
  0.00000000E+00  0.00000000E+00  0.00000000E+00  0.00000000E+00  0.00000000E+00
  0.00000000E+00  0.00000000E+00  0.00000000E+00  0.00000000E+00  0.00000000E+00
  0.00000000E+00  0.00000000E+00  0.00000000E+00  0.00000000E+00 -1.37811229E-01
  2.68775387E-01  2.81495717E-02 -1.39700289E-01  2.95246749E-03  1.92822458E-01
 -1.07360300E-03 -1.62728667E-02  1.40753337E-02 -1.04900695E-02  2.71215181E-03
 -4.48086629E-03 -7.23459257E-03 -5.18300944E-03  1.05159613E-02 -1.76283220E-01
  3.43749578E-01 -2.50549670E-02  7.48129063E-02  3.29778768E-02  2.80916677E-01
 -8.85096204E-04  4.33790305E-03  1.19212546E-03 -1.42042960E-02  4.87084284E-03
 -3.72375330E-05 -5.37185729E-03 -6.69190922E-03  4.80613415E-04  9.51818490E-02
  1.97844201E-02  1.02510661E-01  2.46538595E-02  8.06387512E-02  1.64460893E-02
  0.00000000E+00  0.00000000E+00  0.00000000E+00  0.00000000E+00  0.00000000E+00
  0.00000000E+00  0.00000000E+00  0.00000000E+00  0.00000000E+00  0.00000000E+00
  0.00000000E+00  0.00000000E+00  0.00000000E+00  0.00000000E+00  0.00000000E+00
  0.00000000E+00  0.00000000E+00  0.00000000E+00  0.00000000E+00  0.00000000E+00
  0.00000000E+00  0.00000000E+00  0.00000000E+00  0.00000000E+00  0.00000000E+00
  0.00000000E+00  0.00000000E+00  0.00000000E+00  0.00000000E+00  0.00000000E+00
  0.00000000E+00  0.00000000E+00  0.00000000E+00  0.00000000E+00  0.00000000E+00
  0.00000000E+00 -1.33396594E-01  2.69112278E-01 -5.29064939E-02  1.90473517E-02
  1.54946880E-01  2.53902610E-01 -2.02518961E-02  1.56287252E-02  5.38818998E-02
 -8.22628793E-03 -1.64062065E-02  9.64511150E-03 -4.52388608E-04 -8.30305184E-03
  5.75388098E-03  9.67070001E-02 -1.97144327E-01 -7.85970432E-02  1.99401951E-01
  1.11213429E-01 -2.07836713E-01 -2.65430197E-02  7.60483524E-02  3.20403718E-02
  7.13107445E-03  6.52175835E-03 -1.00371804E-02 -2.77515070E-03  5.12133606E-03
  1.02224782E-02 -1.65075447E-01 -8.59225035E-02 -1.22983920E-01 -5.66960594E-02
  1.99246554E-01  1.06869208E-01  0.00000000E+00  0.00000000E+00  0.00000000E+00
  0.00000000E+00  0.00000000E+00  0.00000000E+00  0.00000000E+00  0.00000000E+00
  0.00000000E+00  0.00000000E+00  0.00000000E+00  0.00000000E+00  0.00000000E+00
  0.00000000E+00  0.00000000E+00  0.00000000E+00  0.00000000E+00  0.00000000E+00
  0.00000000E+00  0.00000000E+00  0.00000000E+00  0.00000000E+00  0.00000000E+00
  0.00000000E+00  0.00000000E+00  0.00000000E+00  0.00000000E+00  0.00000000E+00
  0.00000000E+00  0.00000000E+00  0.00000000E+00  0.00000000E+00  0.00000000E+00
  0.00000000E+00  0.00000000E+00  0.00000000E+00 -3.22374928E-02  6.75468980E-02
  9.39315580E-02 -1.17309653E-01 -2.19544851E-01  4.76341971E-02  2.13128892E-02
 -1.25090462E-02 -5.87220566E-02 -1.87958974E-04  1.44089939E-03 -1.18056804E-02
 -4.28640581E-03  1.67318846E-03  1.16624094E-02 -1.30477873E-03  1.83797977E-03
  1.53169312E-02  3.39599290E-01 -2.57755599E-01  1.55730374E-02  8.49375183E-03
  1.36832176E-01 -1.11074375E-01  1.27156832E-03 -3.96108748E-03 -5.17807555E-03
 -3.64322625E-03 -1.15382368E-03  1.42656140E-02  9.66913963E-02  6.66210604E-02
 -2.50748755E-01 -1.91248246E-01 -1.18384485E-01 -1.11739222E-01  0.00000000E+00
  0.00000000E+00  0.00000000E+00  0.00000000E+00  0.00000000E+00  0.00000000E+00
  0.00000000E+00  0.00000000E+00  0.00000000E+00  0.00000000E+00  0.00000000E+00
  0.00000000E+00  0.00000000E+00  0.00000000E+00  0.00000000E+00  0.00000000E+00
  0.00000000E+00  0.00000000E+00  0.00000000E+00  0.00000000E+00  0.00000000E+00
  0.00000000E+00  0.00000000E+00  0.00000000E+00  0.00000000E+00  0.00000000E+00
  0.00000000E+00  0.00000000E+00  0.00000000E+00  0.00000000E+00  0.00000000E+00
  0.00000000E+00  0.00000000E+00  0.00000000E+00  0.00000000E+00  0.00000000E+00
  1.18096036E-02 -1.82068327E-02  1.09551891E-01 -2.55458543E-01 -1.91541376E-01
 -6.67711239E-02  3.17924849E-02 -7.94194167E-02 -5.37107487E-02 -2.06348153E-03
  2.14453400E-02 -2.37769546E-02 -2.02550963E-03  1.05155284E-02 -8.34149721E-03
 -2.09048877E-02  4.64016974E-02 -1.48437178E-01  1.72434469E-01  3.27971676E-01
  5.33858191E-02 -6.12747289E-02  6.87529671E-02  1.35668573E-01 -3.80300465E-03
  1.00123058E-02 -1.80206130E-02  1.04144699E-03  9.11526325E-03 -1.12262040E-02
 -2.33767873E-01 -2.07374454E-01  7.77880673E-02  6.30341681E-02 -1.94538301E-01
 -1.88480115E-01  0.00000000E+00  0.00000000E+00  0.00000000E+00  0.00000000E+00
  0.00000000E+00  0.00000000E+00  0.00000000E+00  0.00000000E+00  0.00000000E+00
  0.00000000E+00  0.00000000E+00  0.00000000E+00  0.00000000E+00  0.00000000E+00
  0.00000000E+00  0.00000000E+00  0.00000000E+00  0.00000000E+00  0.00000000E+00
  0.00000000E+00  0.00000000E+00  0.00000000E+00  0.00000000E+00  0.00000000E+00
  0.00000000E+00  0.00000000E+00  0.00000000E+00  0.00000000E+00  0.00000000E+00
  0.00000000E+00  0.00000000E+00  0.00000000E+00  0.00000000E+00  0.00000000E+00
  0.00000000E+00  0.00000000E+00  1.22023322E-03 -2.04644856E-03  3.44566816E-01
  6.34876054E-02  1.10676992E-01 -6.45172345E-03  2.26367464E-01  4.24442307E-02
  7.27282768E-02  6.36723444E-03 -7.44986099E-03  1.42066393E-03 -2.17296588E-02
  4.18171171E-03 -7.00503015E-03  2.20999907E-04 -3.26299675E-04  4.04020818E-01
  8.72638200E-02  1.37531173E-01 -1.47652358E-03  3.05033119E-01  6.46710408E-02
  1.03745043E-01 -6.80060381E-03  4.27012193E-03  2.47725870E-03  1.14454991E-02
  3.29158580E-03  4.90810309E-03 -6.56867998E-04 -1.28518190E-03  2.80577725E-04
 -4.51908701E-04 -5.32571381E-04 -7.26602384E-04  0.00000000E+00  0.00000000E+00
  0.00000000E+00  0.00000000E+00  0.00000000E+00  0.00000000E+00  0.00000000E+00
  0.00000000E+00  0.00000000E+00  0.00000000E+00  0.00000000E+00  0.00000000E+00
  0.00000000E+00  0.00000000E+00  0.00000000E+00  0.00000000E+00  0.00000000E+00
  0.00000000E+00  0.00000000E+00  0.00000000E+00  0.00000000E+00  0.00000000E+00
  0.00000000E+00  0.00000000E+00  0.00000000E+00  0.00000000E+00  0.00000000E+00
  0.00000000E+00  0.00000000E+00  0.00000000E+00  0.00000000E+00  0.00000000E+00
  0.00000000E+00  0.00000000E+00  0.00000000E+00  0.00000000E+00  0.00000000E+00
  0.00000000E+00  0.00000000E+00  0.00000000E+00  0.00000000E+00  0.00000000E+00
  0.00000000E+00  0.00000000E+00  0.00000000E+00  0.00000000E+00  0.00000000E+00
  0.00000000E+00  0.00000000E+00  0.00000000E+00  0.00000000E+00  0.00000000E+00
  0.00000000E+00  0.00000000E+00  0.00000000E+00  0.00000000E+00  0.00000000E+00
  0.00000000E+00  0.00000000E+00  0.00000000E+00  0.00000000E+00  0.00000000E+00
  0.00000000E+00  0.00000000E+00  0.00000000E+00  0.00000000E+00  0.00000000E+00
  0.00000000E+00  0.00000000E+00  0.00000000E+00  0.00000000E+00  0.00000000E+00
  1.37353567E-02  1.61291392E-04 -2.79332236E-06 -5.68635867E-05 -3.81804923E-04
  4.53808301E-03  2.44677158E-05  8.52050869E-04  2.18987120E-03 -2.95020836E-04
 -3.25038437E-04 -3.90366592E-04 -1.08493096E-06 -8.91435797E-07  1.65533597E-05
  9.92478897E-01  4.96977918E-02 -2.73234716E-06  2.41026769E-04 -7.73726929E-05
 -1.17242219E-02 -2.54885514E-05 -1.63736787E-03  1.71027784E-03 -1.01366739E-02
 -9.75325673E-03 -9.72045200E-03  1.52875066E-05 -6.19859009E-06 -1.20987573E-04
 -2.35911191E-04  2.55475950E-03 -4.28224665E-05  5.06573610E-04 -1.71112771E-04
 -2.31409808E-04  0.00000000E+00  0.00000000E+00  0.00000000E+00  0.00000000E+00
  0.00000000E+00  0.00000000E+00  0.00000000E+00  0.00000000E+00  0.00000000E+00
  0.00000000E+00  0.00000000E+00  0.00000000E+00  0.00000000E+00  0.00000000E+00
  0.00000000E+00  0.00000000E+00  0.00000000E+00  0.00000000E+00  0.00000000E+00
  0.00000000E+00  0.00000000E+00  0.00000000E+00  0.00000000E+00  0.00000000E+00
  0.00000000E+00  0.00000000E+00  0.00000000E+00  0.00000000E+00  0.00000000E+00
  0.00000000E+00  0.00000000E+00  0.00000000E+00  0.00000000E+00  0.00000000E+00
  0.00000000E+00  0.00000000E+00  9.92685530E-01  4.87461575E-02 -8.37394337E-07
  2.47164114E-05 -3.92674250E-06 -1.27952418E-02  1.91228588E-05 -1.00541334E-04
 -8.40047338E-04 -9.69118846E-03 -9.30221334E-03 -9.02321420E-03  1.60640341E-05
  5.37825039E-06  5.28799851E-06 -1.41737678E-02 -1.19272055E-03 -6.87258116E-07
  5.14128713E-06  4.29034738E-04  4.41406216E-03 -3.74508187E-06  9.39568435E-05
 -1.86113220E-03  1.86222719E-05 -6.17597716E-05 -2.23170738E-04 -3.90869065E-06
  2.71888801E-06  1.06282478E-05 -8.33851933E-05 -5.54596775E-05 -3.56565990E-04
  2.14266603E-03 -3.34653876E-04  2.22888862E-03  0.00000000E+00  0.00000000E+00
  0.00000000E+00  0.00000000E+00  0.00000000E+00  0.00000000E+00  0.00000000E+00
  0.00000000E+00  0.00000000E+00  0.00000000E+00  0.00000000E+00  0.00000000E+00
  0.00000000E+00  0.00000000E+00  0.00000000E+00  0.00000000E+00  0.00000000E+00
  0.00000000E+00  0.00000000E+00  0.00000000E+00  0.00000000E+00  0.00000000E+00
  0.00000000E+00  0.00000000E+00  0.00000000E+00  0.00000000E+00  0.00000000E+00
  0.00000000E+00  0.00000000E+00  0.00000000E+00  0.00000000E+00  0.00000000E+00
  0.00000000E+00  0.00000000E+00  0.00000000E+00  0.00000000E+00 -1.63334374E-01
  3.18555607E-01 -3.75441368E-04  9.78850307E-03  9.81227580E-02  2.32601233E-01
 -2.42787348E-05  7.07074571E-03  2.41168720E-04 -1.85055031E-02  7.94900134E-04
  8.74838555E-03  8.05544658E-04  1.84905086E-04  1.16509446E-03 -1.55627892E-01
  3.13073656E-01  1.98180207E-04  3.31287450E-02 -1.19367775E-01  2.41770537E-01
  3.09053095E-05  1.02120277E-02 -1.39669007E-02 -1.70865311E-02 -1.21094711E-03
  5.95742325E-03  4.64818372E-04 -8.25643329E-05  1.12158628E-04  9.30888707E-02
  2.04632451E-02  8.56118911E-02  2.04428224E-02  9.36732450E-02  1.91803297E-02
  0.00000000E+00  0.00000000E+00  0.00000000E+00  0.00000000E+00  0.00000000E+00
  0.00000000E+00  0.00000000E+00  0.00000000E+00  0.00000000E+00  0.00000000E+00
  0.00000000E+00  0.00000000E+00  0.00000000E+00  0.00000000E+00  0.00000000E+00
  0.00000000E+00  0.00000000E+00  0.00000000E+00  0.00000000E+00  0.00000000E+00
  0.00000000E+00  0.00000000E+00  0.00000000E+00  0.00000000E+00  0.00000000E+00
  0.00000000E+00  0.00000000E+00  0.00000000E+00  0.00000000E+00  0.00000000E+00
  0.00000000E+00  0.00000000E+00  0.00000000E+00  0.00000000E+00  0.00000000E+00
  0.00000000E+00  1.14089031E-01 -2.30423977E-01  2.43059403E-03  2.97769433E-02
  2.08014653E-01 -2.35038898E-01  1.01856396E-03  1.30311381E-02  7.23728130E-02
  1.15823730E-02 -1.53110121E-02  8.43053504E-03 -1.16491206E-03 -2.41068623E-04
  1.84021962E-03 -1.28979480E-01  2.69324373E-01  1.57669310E-03  1.04151268E-01
  1.20946933E-01  2.66402641E-01  2.11340323E-04  2.62054093E-02  4.40885743E-02
 -1.22177083E-02  1.01876099E-02 -1.13237641E-02  5.38396076E-04 -9.55540334E-05
  5.10749139E-03  1.87048195E-01  9.51504360E-02 -1.63563627E-01 -7.59857493E-02
 -1.45647814E-01 -7.26156115E-02  0.00000000E+00  0.00000000E+00  0.00000000E+00
  0.00000000E+00  0.00000000E+00  0.00000000E+00  0.00000000E+00  0.00000000E+00
  0.00000000E+00  0.00000000E+00  0.00000000E+00  0.00000000E+00  0.00000000E+00
  0.00000000E+00  0.00000000E+00  0.00000000E+00  0.00000000E+00  0.00000000E+00
  0.00000000E+00  0.00000000E+00  0.00000000E+00  0.00000000E+00  0.00000000E+00
  0.00000000E+00  0.00000000E+00  0.00000000E+00  0.00000000E+00  0.00000000E+00
  0.00000000E+00  0.00000000E+00  0.00000000E+00  0.00000000E+00  0.00000000E+00
  0.00000000E+00  0.00000000E+00  0.00000000E+00  3.97204963E-04 -1.00392804E-03
  1.07094813E-02  3.44908080E-01 -2.01246376E-01 -1.48425683E-02  3.84142076E-03
  1.27495934E-01 -7.49959583E-02 -3.93256948E-04  1.09243203E-02 -3.80401301E-03
  1.10821324E-04 -3.97456027E-04 -1.14011066E-02  3.44051544E-02 -7.89936643E-02
  6.14445813E-03  2.49551033E-01  1.55420248E-01 -6.98206873E-02  2.60830191E-03
  9.39268685E-02  1.95374450E-02  1.25550343E-03  1.22421123E-02 -1.72623899E-03
  1.13630368E-04 -2.04291641E-04 -3.12172518E-03  1.36014285E-01  1.14314376E-01
 -1.04219749E-01 -7.56905866E-02  2.45247442E-01  1.89278443E-01  0.00000000E+00
  0.00000000E+00  0.00000000E+00  0.00000000E+00  0.00000000E+00  0.00000000E+00
  0.00000000E+00  0.00000000E+00  0.00000000E+00  0.00000000E+00  0.00000000E+00
  0.00000000E+00  0.00000000E+00  0.00000000E+00  0.00000000E+00  0.00000000E+00
  0.00000000E+00  0.00000000E+00  0.00000000E+00  0.00000000E+00  0.00000000E+00
  0.00000000E+00  0.00000000E+00  0.00000000E+00  0.00000000E+00  0.00000000E+00
  0.00000000E+00  0.00000000E+00  0.00000000E+00  0.00000000E+00  0.00000000E+00
  0.00000000E+00  0.00000000E+00  0.00000000E+00  0.00000000E+00  0.00000000E+00
  1.85521844E-02 -4.08308007E-02 -1.29298969E-02 -2.49719478E-01 -3.17637239E-01
 -3.60130981E-02 -5.13640636E-03 -9.40066109E-02 -1.19938235E-01  1.33403195E-03
  1.33354690E-02 -2.54764756E-03  7.41556188E-04  5.15566172E-04  1.54034366E-02
 -1.20339517E-02  2.19809577E-02 -3.52782264E-03  5.08349178E-02  3.66117553E-01
  8.23845613E-02 -2.18822174E-03 -2.50047653E-03  1.23762563E-01 -7.90439585E-04
  1.38134844E-02 -9.08578481E-03  2.85703836E-04  4.96740616E-04  1.67452821E-02
  1.72432497E-01  1.59487710E-01  2.32768568E-01  2.03169792E-01 -5.16691398E-02
 -4.17162035E-02  0.00000000E+00  0.00000000E+00  0.00000000E+00  0.00000000E+00
  0.00000000E+00  0.00000000E+00  0.00000000E+00  0.00000000E+00  0.00000000E+00
  0.00000000E+00  0.00000000E+00  0.00000000E+00  0.00000000E+00  0.00000000E+00
  0.00000000E+00  0.00000000E+00  0.00000000E+00  0.00000000E+00  0.00000000E+00
  0.00000000E+00  0.00000000E+00  0.00000000E+00  0.00000000E+00  0.00000000E+00
  0.00000000E+00  0.00000000E+00  0.00000000E+00  0.00000000E+00  0.00000000E+00
  0.00000000E+00  0.00000000E+00  0.00000000E+00  0.00000000E+00  0.00000000E+00
  0.00000000E+00  0.00000000E+00  1.82499349E-03 -4.67949766E-03  3.77650481E-01
 -2.01078613E-03 -1.57467035E-02  7.09160709E-04  2.69469565E-01 -5.58158525E-03
 -4.75287008E-03  7.63435009E-05  2.57551088E-04  3.08099971E-04  8.25461925E-04
  1.62673195E-02 -3.12515729E-03 -7.58599436E-03  1.56217790E-02  4.31669522E-01
 -5.52556776E-02  3.02174385E-02  3.66856560E-02  2.90159383E-01 -3.57636751E-02
  2.27907808E-02 -2.10977188E-04 -8.62841840E-04 -1.08134463E-03  1.97808092E-03
 -1.60070059E-02 -5.55755266E-04 -1.28878002E-02 -1.52910687E-02 -8.97800587E-03
 -9.85752542E-03  1.38114116E-02  1.88116751E-02  0.00000000E+00  0.00000000E+00
  0.00000000E+00  0.00000000E+00  0.00000000E+00  0.00000000E+00  0.00000000E+00
  0.00000000E+00  0.00000000E+00  0.00000000E+00  0.00000000E+00  0.00000000E+00
  0.00000000E+00  0.00000000E+00  0.00000000E+00  0.00000000E+00  0.00000000E+00
  0.00000000E+00  0.00000000E+00  0.00000000E+00  0.00000000E+00  0.00000000E+00
  0.00000000E+00  0.00000000E+00  0.00000000E+00  0.00000000E+00  0.00000000E+00
  0.00000000E+00  0.00000000E+00  0.00000000E+00  0.00000000E+00  0.00000000E+00
  0.00000000E+00  0.00000000E+00  0.00000000E+00  0.00000000E+00 -2.26479880E-02
  5.63650951E-02  3.27326171E-02 -1.32337434E-01  1.11888629E-01  1.15743842E-02
  2.53179782E-02 -4.79225689E-02  2.06845045E-02 -1.23044402E-03 -1.97648670E-03
 -3.18653790E-03  2.43019347E-04  2.55921745E-03  2.96490439E-02  7.22396132E-02
 -1.50572263E-01  5.59694704E-02  4.59487827E-01 -2.55610216E-01 -3.47622493E-01
  3.83599379E-02  2.98928679E-01 -2.08755297E-01  9.41831203E-04  9.52125712E-03
  1.05910498E-02  1.63292501E-04 -1.17590929E-03  1.26705295E-02  1.42455729E-01
  1.74623956E-01  1.08031154E-01  1.28723775E-01 -1.51899193E-01 -2.06144737E-01
 -4.28970160E-02 -1.36857548E-01  1.13625906E-01  1.99488995E-01 -4.48373770E-01
  5.06768365E-01 -1.75024546E-01 -1.04760683E-01  6.06442355E-01  2.56620753E-02
  2.60970369E-04 -8.28343761E-02  2.12548469E-02  5.28083097E-02 -3.37365402E-02
  3.33433041E-03 -1.96327143E-01  1.19530760E-01  2.10096460E-02 -3.91674529E-01
  2.30966675E-01 -2.21242586E-01 -2.87784593E-01  8.48901677E-01  1.26788134E-02
 -5.35618298E-02  9.20398270E-03 -8.09327996E-03 -1.71315739E-02  7.09744851E-02
  3.00413724E-01  1.65633720E-01 -4.07344297E-01 -2.24453581E-01 -5.39419131E-01
 -8.60532611E-02  0.00000000E+00  0.00000000E+00  0.00000000E+00  0.00000000E+00
  0.00000000E+00  0.00000000E+00  0.00000000E+00  0.00000000E+00  0.00000000E+00
  0.00000000E+00  0.00000000E+00  0.00000000E+00  0.00000000E+00  0.00000000E+00
  0.00000000E+00  0.00000000E+00  0.00000000E+00  0.00000000E+00  0.00000000E+00
  0.00000000E+00  0.00000000E+00  0.00000000E+00  0.00000000E+00  0.00000000E+00
  0.00000000E+00  0.00000000E+00  0.00000000E+00  0.00000000E+00  0.00000000E+00
  0.00000000E+00  0.00000000E+00  0.00000000E+00  0.00000000E+00  0.00000000E+00
  0.00000000E+00  0.00000000E+00  1.36716956E-04 -2.50913921E-02 -8.03483415E-01
 -1.72866501E-01 -2.39024128E-01  3.60343826E-02  1.12292586E+00  2.36581178E-01
  3.45336669E-01  3.84407311E-03 -2.51565874E-03 -7.42771919E-03 -2.29651263E-03
 -3.38676738E-03 -4.42432289E-03 -1.05634466E-03 -2.12829712E-02  6.42131413E-01
  1.33912838E-01  2.07498014E-01  3.25278860E-02 -9.79188349E-01 -2.18346453E-01
 -3.13126367E-01  1.09706176E-02 -1.12931712E-02 -5.01980364E-03 -1.75801716E-02